Untitled

400 atoms
0 bonds
0 angles
0 dihedrals
0 impropers

1 atom types

-19.9953033  30.1107967 xlo xhi
-19.8859078  30.2201922 ylo yhi
-19.8866987  30.2194013 zlo zhi

Masses

1  10.0000000

Atoms

     1      1      1 0.00000000   -2.7458222  -17.5611610  -13.6153656
     2      2      1 0.00000000   -5.1249640   18.1149248   -8.6934899
     3      3      1 0.00000000   -7.2179057   -1.2331598   -4.5243381
     4      4      1 0.00000000   -6.1158434    9.8357161   -3.1121919
     5      5      1 0.00000000  -16.2226996   -5.6665099   -9.9186450
     6      6      1 0.00000000  -12.2553187   10.6261661   -3.9906066
     7      7      1 0.00000000   -8.2042691    3.1457689   -3.1902569
     8      8      1 0.00000000   -5.6312394   12.9186009  -12.9319370
     9      9      1 0.00000000   -2.9166365    6.8728235   -9.6979346
    10     10      1 0.00000000  -19.1825268   13.0136809   14.6954440
    11     11      1 0.00000000  -17.2581207   11.2606016   18.5952165
    12     12      1 0.00000000   -6.6596926   13.5052308   -1.5043770
    13     13      1 0.00000000   -2.2786405   13.8084533   -4.8807554
    14     14      1 0.00000000  -13.8196357  -15.9058046   -6.2350619
    15     15      1 0.00000000   17.5770339    5.2002554    7.3568872
    16     16      1 0.00000000  -17.5715956    8.8177499    2.2240458
    17     17      1 0.00000000   -9.6357334   11.0874430  -14.8853862
    18     18      1 0.00000000  -12.0109202  -19.6945385  -14.3429360
    19     19      1 0.00000000   16.3134506   10.5244815    5.5919539
    20     20      1 0.00000000   15.8084671   18.0686319   18.3093122
    21     21      1 0.00000000    5.0887241  -12.5071164   -5.4660273
    22     22      1 0.00000000  -13.9354721  -10.7575139   -3.1224032
    23     23      1 0.00000000    5.8804178   17.5467038   -2.3578368
    24     24      1 0.00000000  -12.1295766    9.6311775   -8.4711914
    25     25      1 0.00000000   18.3287040  -11.0574301  -15.3636885
    26     26      1 0.00000000    3.3129652  -11.6992593  -13.9510232
    27     27      1 0.00000000   11.0370094   -7.2090545  -15.3520811
    28     28      1 0.00000000   -8.0147272  -18.8466074   -9.2989449
    29     29      1 0.00000000   13.4385864  -11.3872172  -10.7668816
    30     30      1 0.00000000    4.4194422   -6.7587355  -12.8327502
    31     31      1 0.00000000   -0.7539742  -10.3718325  -14.4465672
    32     32      1 0.00000000  -12.8095520    6.9678232    4.3686617
    33     33      1 0.00000000   -7.0217388   18.4406980  -12.7947078
    34     34      1 0.00000000   -5.7182407   14.1358382  -17.0343229
    35     35      1 0.00000000   14.0016203   17.9529225    5.1357084
    36     36      1 0.00000000    2.6753212  -10.9965035   -9.9518828
    37     37      1 0.00000000    0.9839000   -9.1888801    7.7384002
    38     38      1 0.00000000  -10.1922224  -11.6488977   -6.2336910
    39     39      1 0.00000000  -12.0656100    2.0989562    4.2276464
    40     40      1 0.00000000  -15.6592546    2.7290639    0.5095272
    41     41      1 0.00000000   -9.8455622    7.4078307   -1.4442381
    42     42      1 0.00000000   19.1669432  -14.3020880  -12.2940439
    43     43      1 0.00000000  -19.9953033    3.5829298   -0.7250047
    44     44      1 0.00000000   12.5348826   13.4569541    6.8295322
    45     45      1 0.00000000  -14.5901580   -2.4608591   13.9324020
    46     46      1 0.00000000    7.7509806   19.6292192   -6.0844507
    47     47      1 0.00000000   15.3626149  -16.2861508   -9.8472743
    48     48      1 0.00000000   13.5845769   14.1119650   18.6991602
    49     49      1 0.00000000   -9.2540095    4.2441201  -16.1300489
    50     50      1 0.00000000   -8.4395824   -9.2504989  -10.5949884
    51     51      1 0.00000000   18.3311104   18.5692446    5.7179411
    52     52      1 0.00000000    4.7715217  -16.6379407   -5.6770762
    53     53      1 0.00000000   15.9457405    6.2625852    3.7574305
    54     54      1 0.00000000  -16.1766975   11.8363190   -3.5951316
    55     55      1 0.00000000  -17.5698161  -11.5405809  -11.2619689
    56     56      1 0.00000000  -18.9607174    7.8675214   14.8508922
    57     57      1 0.00000000   -1.1242773   -6.8721077   -9.4591669
    58     58      1 0.00000000   18.6088393   -6.5304692   -8.1848420
    59     59      1 0.00000000   -9.8499957   -6.1545362   -7.1008788
    60     60      1 0.00000000    5.3956734  -13.9187807   -9.5526218
    61     61      1 0.00000000  -14.1084667   -7.5848336   -5.9020298
    62     62      1 0.00000000    0.2934295  -16.9850250  -16.2394615
    63     63      1 0.00000000   16.9383920   14.6317532    6.6875534
    64     64      1 0.00000000   -6.0555580    6.1906911  -12.8412523
    65     65      1 0.00000000   -9.1566879   12.8856379   -5.4547674
    66     66      1 0.00000000   -6.2419993  -14.5918614  -10.7207239
    67     67      1 0.00000000  -17.5033085   -3.6107694  -14.9530491
    68     68      1 0.00000000    0.9851607   15.0362728  -18.4462371
    69     69      1 0.00000000  -17.6771124   -8.7326606   -7.9965393
    70     70      1 0.00000000   -2.7122055  -15.0981272   -8.7451907
    71     71      1 0.00000000   -0.6886810    6.0943813  -14.7956003
    72     72      1 0.00000000   -4.9582943    7.1133195    0.4340883
    73     73      1 0.00000000    0.0192200  -14.9394896   11.5659213
    74     74      1 0.00000000    2.1321993  -16.7275281   -9.1674683
    75     75      1 0.00000000    6.8377257   15.6892371   -5.5274411
    76     76      1 0.00000000    2.4096014   10.9004022    0.4606024
    77     77      1 0.00000000   18.2808382  -10.5055439  -10.8547404
    78     78      1 0.00000000  -19.1574883   -3.8512082   -6.2113372
    79     79      1 0.00000000   17.4338266   15.3721527   14.3705871
    80     80      1 0.00000000   -3.0999382   10.0332016  -14.2085911
    81     81      1 0.00000000   11.3537096   12.6552500   11.1343580
    82     82      1 0.00000000  -13.3732762    8.8145624    0.5640227
    83     83      1 0.00000000    1.6766386   14.0578634  -13.6346424
    84     84      1 0.00000000    9.1274624   17.7051491  -14.5434259
    85     85      1 0.00000000  -17.4785231    7.1823899   -2.0835679
    86     86      1 0.00000000    4.8062620   16.9330539  -11.4457134
    87     87      1 0.00000000    7.1325305   -4.2341871   -9.2730007
    88     88      1 0.00000000   -9.3306111    7.0895012   -5.6367970
    89     89      1 0.00000000   14.0664529   13.0448644   -0.2263508
    90     90      1 0.00000000   15.3443461   12.0166971    9.7496508
    91     91      1 0.00000000   -2.3413046   17.2182843  -12.4968201
    92     92      1 0.00000000   17.5028132    7.9726887   11.9715319
    93     93      1 0.00000000  -18.0338916   15.3845682  -18.0463935
    94     94      1 0.00000000   -4.7621026   19.2586993  -16.5505629
    95     95      1 0.00000000   -1.7774111   12.6663641  -11.3216026
    96     96      1 0.00000000    8.4961316  -16.9196335   -8.3491913
    97     97      1 0.00000000   -6.3910397   -5.9323432    0.7385024
    98     98      1 0.00000000   -5.7782645  -10.8026700   -6.9940114
    99     99      1 0.00000000   12.7371225    7.8512799    8.7282067
   100    100      1 0.00000000    6.8611832   -5.5004893   -1.7626588
   101    101      1 0.00000000   -0.4564754   19.7069207  -19.5629148
   102    102      1 0.00000000    4.4379299  -18.5437481  -13.1987987
   103    103      1 0.00000000   10.9676299   17.4393719   19.4404450
   104    104      1 0.00000000   19.4346406   13.1911188    3.9563691
   105    105      1 0.00000000   -8.6562836   -4.6577323   -2.7510942
   106    106      1 0.00000000  -14.6767708   13.0506313    0.6754975
   107    107      1 0.00000000    8.0747409   19.5576554  -17.8848422
   108    108      1 0.00000000  -18.1102324   19.6305064   -3.1268276
   109    109      1 0.00000000    9.3714866   -2.2636014    0.7389255
   110    110      1 0.00000000   14.7029298   18.9144624   10.3839226
   111    111      1 0.00000000   15.5997468   19.1962561  -13.4344354
   112    112      1 0.00000000    9.6702031    6.3620299   10.7584958
   113    113      1 0.00000000    0.0377378   -3.2483695  -15.9287770
   114    114      1 0.00000000   18.8475666   13.4496958   19.5257958
   115    115      1 0.00000000   16.3475042  -15.8174784   -5.0538168
   116    116      1 0.00000000  -16.6717438   -2.9749532   -1.1485617
   117    117      1 0.00000000  -18.9519399  -15.4344524   -3.9468327
   118    118      1 0.00000000    6.0968277   -9.1185645    3.0470468
   119    119      1 0.00000000   10.0940964  -11.5595311   -8.3588046
   120    120      1 0.00000000   12.1109897  -13.0305809   -4.2205048
   121    121      1 0.00000000    2.0133878   -7.7848741  -16.4604756
   122    122      1 0.00000000    1.2238008   10.7397267   -7.3069103
   123    123      1 0.00000000  -10.1649125    7.1257018  -13.1537518
   124    124      1 0.00000000   12.2512147  -15.4706593   -0.1676474
   125    125      1 0.00000000    3.6446115    8.5025742   -4.4022411
   126    126      1 0.00000000  -19.2095754    5.0733874    3.8116264
   127    127      1 0.00000000  -15.7266222   -4.5728074   19.8462530
   128    128      1 0.00000000  -10.9222044  -14.6068841  -11.0444344
   129    129      1 0.00000000  -12.5759643    5.2554639   -3.6351818
   130    130      1 0.00000000   19.6775561   15.1465018  -14.1404631
   131    131      1 0.00000000   -4.6089814  -15.2906096   -4.1704176
   132    132      1 0.00000000   17.3302145    9.2687756   16.1025870
   133    133      1 0.00000000  -15.4265392    0.0169727   10.1807640
   134    134      1 0.00000000    7.7929900  -13.9761856   -2.2590751
   135    135      1 0.00000000   -3.6971583  -17.6332385  -18.7389202
   136    136      1 0.00000000   -3.3179861  -11.8009019  -11.3980192
   137    137      1 0.00000000   -3.8001184  -12.7088479  -15.1364133
   138    138      1 0.00000000    9.2168169  -17.6151662  -14.1637905
   139    139      1 0.00000000  -19.3994018   -7.3039994  -12.7839129
   140    140      1 0.00000000   -9.5098234    2.9999954    1.1354813
   141    141      1 0.00000000   -8.6784075  -15.4099103   -7.1441297
   142    142      1 0.00000000    1.6481400    5.6741525   10.5440366
   143    143      1 0.00000000  -19.1531536   15.5591345    0.8099864
   144    144      1 0.00000000  -16.3046738  -10.9506465   18.5145953
   145    145      1 0.00000000   -5.5170416    2.4057913  -14.7923129
   146    146      1 0.00000000   14.3310739   -8.4942507   -0.4176103
   147    147      1 0.00000000  -11.8397846    7.3305858  -18.4134646
   148    148      1 0.00000000  -16.6246776    6.1149375    6.9186472
   149    149      1 0.00000000  -12.7281902   16.8057449    0.4511389
   150    150      1 0.00000000   19.8372576   -2.1225063   17.0426951
   151    151      1 0.00000000   12.5228354    1.5504133   -0.4244916
   152    152      1 0.00000000   15.0101128  -14.5529776  -14.3826076
   153    153      1 0.00000000   12.3600417  -17.8404073   -7.4916779
   154    154      1 0.00000000   -4.7818704    9.6213118   18.4844624
   155    155      1 0.00000000   -9.7342796   -4.5309761    3.6412814
   156    156      1 0.00000000   19.7464600   -1.5200171  -18.6068734
   157    157      1 0.00000000   11.3951392   -5.1239185  -10.0805044
   158    158      1 0.00000000  -10.6878461   12.8641940   -0.5716325
   159    159      1 0.00000000  -12.4750186   -2.4987318  -18.8783799
   160    160      1 0.00000000    9.0486750   11.7762236   14.8541753
   161    161      1 0.00000000   -8.9873388  -19.2954606   -4.0794880
   162    162      1 0.00000000    3.3669025   -6.0565762   -8.4310609
   163    163      1 0.00000000   16.6298113  -10.2589877   -6.2911748
   164    164      1 0.00000000   -0.0681543  -15.6312186   16.0128184
   165    165      1 0.00000000  -14.9966029  -16.4442201   -0.4203721
   166    166      1 0.00000000   -8.4975883   -1.1156768  -14.0147184
   167    167      1 0.00000000   -4.1695912  -13.1687072   14.4719411
   168    168      1 0.00000000    3.6560786  -18.1613253   15.0846442
   169    169      1 0.00000000    4.9040014   -6.6764541  -19.5772579
   170    170      1 0.00000000  -11.8974880  -19.6682220   -1.4040532
   171    171      1 0.00000000   -6.1869510  -15.7099891   17.3052768
   172    172      1 0.00000000    4.9183418  -13.6792700   12.0301094
   173    173      1 0.00000000   -4.8597202    0.8185030   14.5434971
   174    174      1 0.00000000   18.2850279    5.8188699   -4.8651638
   175    175      1 0.00000000   -3.6651249   -6.6341564   -6.1287043
   176    176      1 0.00000000   -2.7725989    9.9854745   -6.8497724
   177    177      1 0.00000000   16.3600195   15.4778891  -18.1381097
   178    178      1 0.00000000  -14.8077445   -9.0455728  -12.6666466
   179    179      1 0.00000000   -8.6987903  -15.0195003   -3.0736700
   180    180      1 0.00000000  -14.3696370  -12.2897516   -7.9710868
   181    181      1 0.00000000    3.5069463  -19.1304894  -18.9260178
   182    182      1 0.00000000   -7.4215242    7.8796683  -16.5196095
   183    183      1 0.00000000    4.1906502  -13.0232781    7.7188516
   184    184      1 0.00000000   11.7438586   -8.8154778    4.1900434
   185    185      1 0.00000000  -16.2215056   18.8980633    0.5764581
   186    186      1 0.00000000    6.7513775   -9.1270887  -15.9163402
   187    187      1 0.00000000   12.9994211   -8.2300392   -4.7284717
   188    188      1 0.00000000   -2.4545752   14.0946022   19.6030800
   189    189      1 0.00000000  -17.5101322  -12.5806090    0.5595305
   190    190      1 0.00000000   19.9196472  -13.3444691   -7.8447984
   191    191      1 0.00000000    7.1949136   14.8618141   19.8900414
   192    192      1 0.00000000  -19.7811183   -5.6580370   19.0108150
   193    193      1 0.00000000   -1.5056925  -10.7833740   -6.8951349
   194    194      1 0.00000000   -8.1221506   13.6206309    3.0462738
   195    195      1 0.00000000  -14.4396091   16.8987430   -3.6580896
   196    196      1 0.00000000    8.5059576   11.4133889  -17.7303519
   197    197      1 0.00000000   -4.9583562    4.9318953   -5.4221713
   198    198      1 0.00000000   -8.5994559  -10.7834341    1.6803438
   199    199      1 0.00000000    9.9858049  -12.9581039  -13.2858425
   200    200      1 0.00000000    6.4967383   -9.9977572  -11.0133436
   201    201      1 0.00000000    0.3213870   -5.3889831  -19.8866987
   202    202      1 0.00000000   17.0814764    0.2485583  -15.5632191
   203    203      1 0.00000000  -19.8592385  -17.5046686    1.0469048
   204    204      1 0.00000000  -19.6566675   16.8626928   17.5651378
   205    205      1 0.00000000   -6.5302338   16.1004070    5.9442017
   206    206      1 0.00000000   -7.4241543    4.2597759    7.8718631
   207    207      1 0.00000000    0.9476497   16.8959763  -10.1711716
   208    208      1 0.00000000    7.5026790   10.1878760   10.3205362
   209    209      1 0.00000000    0.4724500    4.2369759   -3.9499590
   210    210      1 0.00000000    8.5144917   -5.7137626    4.7436425
   211    211      1 0.00000000    0.7345276  -15.2726281   -5.1365110
   212    212      1 0.00000000    3.8030722   13.0768946   -9.3964210
   213    213      1 0.00000000    0.6483566   10.3724947  -15.7982305
   214    214      1 0.00000000   -4.7153990   19.9180275   -4.5257062
   215    215      1 0.00000000    7.5435379    2.5881029   10.8100784
   216    216      1 0.00000000  -10.9330213  -15.5654181   14.6613194
   217    217      1 0.00000000  -17.7371638   -8.3929857  -17.8441479
   218    218      1 0.00000000   11.5524016   15.7579953   -6.9461759
   219    219      1 0.00000000   18.8167859   -5.6137048  -16.1847469
   220    220      1 0.00000000   15.8772304   -4.6089428   17.9684297
   221    221      1 0.00000000   13.5868744   16.4260624   -2.8561373
   222    222      1 0.00000000  -17.7048365    3.4118622   -4.6243287
   223    223      1 0.00000000  -19.9062691  -18.4671977   -7.6708601
   224    224      1 0.00000000   -6.4485238   -9.8574591   19.1368560
   225    225      1 0.00000000    7.2909201  -10.1616470   19.1873326
   226    226      1 0.00000000   -7.6612106   -9.3099996   -2.3864864
   227    227      1 0.00000000  -18.7927292   -9.3258339   -2.7910412
   228    228      1 0.00000000  -18.0526790    1.5789915    5.6996986
   229    229      1 0.00000000    9.7783532   14.4531379   -1.0452749
   230    230      1 0.00000000   12.8436440   -3.5133558   -2.7101479
   231    231      1 0.00000000   -5.0318413  -14.1528447    0.4930804
   232    232      1 0.00000000    9.1872105   -9.5948623   -2.7845083
   233    233      1 0.00000000  -11.8519656  -13.0714267  -18.1193547
   234    234      1 0.00000000   15.3259872   -8.0691886  -14.9541440
   235    235      1 0.00000000  -16.5378024   -0.5144064  -17.2795992
   236    236      1 0.00000000   -0.8638399    9.4451698   -2.4355276
   237    237      1 0.00000000   11.7173777    9.3949376   -6.9514001
   238    238      1 0.00000000   -2.7090313    6.1790426   16.0371377
   239    239      1 0.00000000  -17.9875895  -12.4864260  -16.6006375
   240    240      1 0.00000000   17.5792660    4.1026414   18.2788697
   241    241      1 0.00000000   -3.0089214    0.7371133   -3.4172296
   242    242      1 0.00000000  -19.5986702   19.3354594  -18.5714340
   243    243      1 0.00000000   -2.3088710    1.9766945  -10.0858475
   244    244      1 0.00000000   -3.0063823   18.2294705    8.2072496
   245    245      1 0.00000000    4.2822141   10.4999467   13.0357576
   246    246      1 0.00000000    3.0957198   -0.0309869   -4.1060158
   247    247      1 0.00000000    3.6455486    4.5827442    6.0500265
   248    248      1 0.00000000    2.6713116    8.0564205    3.5275391
   249    249      1 0.00000000    6.5778956   11.9287954    1.0096548
   250    250      1 0.00000000   -8.7352529  -19.6797690    2.6542452
   251    251      1 0.00000000    5.7163858   17.4404904   17.6557653
   252    252      1 0.00000000  -10.1761239   10.2406528    5.8465998
   253    253      1 0.00000000   -4.3393199   -3.8721471  -11.9202372
   254    254      1 0.00000000   17.8384370  -14.3465315   13.6527077
   255    255      1 0.00000000    4.0589404    8.2458819    8.4078430
   256    256      1 0.00000000  -17.1149126  -16.9517260   10.8872114
   257    257      1 0.00000000    8.8716226   14.5829514  -10.8789746
   258    258      1 0.00000000   -8.6377564   -6.3918855  -13.9063263
   259    259      1 0.00000000   -9.0675131    8.0739219   10.1925588
   260    260      1 0.00000000   16.6724061   -7.2033776    9.1235288
   261    261      1 0.00000000   15.5780688   19.4816274   -7.5310261
   262    262      1 0.00000000   -7.8117444    0.2271850    3.8963439
   263    263      1 0.00000000   16.9560151   15.6435285    1.6439460
   264    264      1 0.00000000   11.8712227    2.8384456    8.6295114
   265    265      1 0.00000000   -8.6868173  -15.0036209    1.5572172
   266    266      1 0.00000000   13.0185799  -18.7373880    1.7267966
   267    267      1 0.00000000   18.4728791    0.6537959   -3.2547844
   268    268      1 0.00000000   14.5259068    2.0250720   -5.1809214
   269    269      1 0.00000000  -15.3156655   10.5130400    5.4088861
   270    270      1 0.00000000    6.6589685  -18.0906583   11.8968228
   271    271      1 0.00000000   13.0213753   -5.5797632    7.1279734
   272    272      1 0.00000000   -3.6001998   12.2803804    3.6604210
   273    273      1 0.00000000   11.5131330  -17.0925215  -18.1684597
   274    274      1 0.00000000   13.4828428  -12.9493438    8.1658069
   275    275      1 0.00000000   16.4190992   -5.9971122   -3.9020794
   276    276      1 0.00000000   17.2160059  -10.9301603    7.1627197
   277    277      1 0.00000000    7.9667961   -1.2522879   18.5809496
   278    278      1 0.00000000  -12.9068449    0.4420746  -14.2983230
   279    279      1 0.00000000   17.3778487   -8.5626653   19.7373703
   280    280      1 0.00000000  -12.7893775   19.8128470    4.6391844
   281    281      1 0.00000000  -17.4939518    7.2333422   -6.7566885
   282    282      1 0.00000000  -15.7098699   15.2351903  -12.3168475
   283    283      1 0.00000000   -6.7092070   16.4573350   -4.7219657
   284    284      1 0.00000000    0.4062028  -11.0919060    2.6517541
   285    285      1 0.00000000   -1.0712541   10.6943883   15.8223888
   286    286      1 0.00000000  -10.1520036  -15.1632380   18.5960044
   287    287      1 0.00000000  -12.7210890   15.1942261    5.5103405
   288    288      1 0.00000000    9.8053164   17.3023184    7.6973721
   289    289      1 0.00000000    3.6683915   17.9206178  -16.0012653
   290    290      1 0.00000000   12.6969069   18.1622604   14.8152091
   291    291      1 0.00000000  -10.0147216    0.8967543   16.0783398
   292    292      1 0.00000000   17.3745961    8.8097649   -7.8962702
   293    293      1 0.00000000   -5.7759178  -10.5674901    5.0275379
   294    294      1 0.00000000   10.7480353   -0.1025370   -4.0870068
   295    295      1 0.00000000   14.9683142  -11.6309485   12.1592872
   296    296      1 0.00000000    8.4210049   -6.4459070   -5.5894046
   297    297      1 0.00000000   17.2433968    1.1268514    9.7858847
   298    298      1 0.00000000   -3.9309678    2.5274352    2.8501923
   299    299      1 0.00000000  -13.6562688   -6.6501983    8.5095727
   300    300      1 0.00000000   19.7232061  -14.8854080    7.9804885
   301    301      1 0.00000000   11.2420823   -1.2548519  -16.7210951
   302    302      1 0.00000000   12.8591100   -1.1795382  -11.5263892
   303    303      1 0.00000000  -14.5290611   -6.6895942   -1.2590243
   304    304      1 0.00000000    7.0013227  -18.5612610   -0.0127275
   305    305      1 0.00000000   -5.5809201  -13.8647769  -18.4432353
   306    306      1 0.00000000   -6.5673716   13.4987955   13.7623662
   307    307      1 0.00000000   13.4340668    6.4764098   -3.2654171
   308    308      1 0.00000000    7.4605654    2.3470569    6.5208780
   309    309      1 0.00000000  -12.1960584  -12.8223159    0.3306738
   310    310      1 0.00000000    7.6993377    9.0813757    5.9936568
   311    311      1 0.00000000  -19.6599289    5.6530272   11.2186111
   312    312      1 0.00000000   10.7937865    1.8291633   -8.8748577
   313    313      1 0.00000000   15.0155454  -18.4108035   -2.1022330
   314    314      1 0.00000000    4.5384596  -19.8859078   -8.6685732
   315    315      1 0.00000000   14.8793453  -16.2392247   10.6795508
   316    316      1 0.00000000  -12.1984946  -18.7674141   -9.0547196
   317    317      1 0.00000000   16.0489930   15.1933348  -12.4218347
   318    318      1 0.00000000   -0.9461563  -19.4145834   -7.9137460
   319    319      1 0.00000000   13.0960507  -17.3735819   13.9808921
   320    320      1 0.00000000    1.4257866  -12.5021998  -19.6550253
   321    321      1 0.00000000   19.7331113   12.5486740   -2.4293725
   322    322      1 0.00000000   -3.5538806   -1.2019231    1.0599348
   323    323      1 0.00000000   -9.6872576  -13.2354790    6.1138125
   324    324      1 0.00000000    1.7472324   -4.6425550    5.9705885
   325    325      1 0.00000000    1.7878770    6.3342204   -9.1037834
   326    326      1 0.00000000  -10.9644765   -7.3980345    1.2431059
   327    327      1 0.00000000    4.0327772   -2.9808683  -17.9964919
   328    328      1 0.00000000    0.9587480   -2.1544650   -0.4421105
   329    329      1 0.00000000   -6.5695502    5.0858245   16.3608555
   330    330      1 0.00000000  -17.1511154   -7.0315497   15.7669213
   331    331      1 0.00000000    5.7220001    5.6778281   13.9163583
   332    332      1 0.00000000  -16.8823085  -18.4416746    5.9971440
   333    333      1 0.00000000  -13.8847392    4.4563605   -8.5105244
   334    334      1 0.00000000  -11.1010672  -11.2777515  -14.3178668
   335    335      1 0.00000000    8.2708210   -4.3431360  -17.4554410
   336    336      1 0.00000000   -5.7489159   -5.7203621    5.9879402
   337    337      1 0.00000000   -1.1108849    7.8322774  -18.5351484
   338    338      1 0.00000000   -3.1775331   -2.4149859   11.3873075
   339    339      1 0.00000000    5.2396690   -4.8695705    8.3206164
   340    340      1 0.00000000    9.3146606  -12.2148259   13.2884085
   341    341      1 0.00000000   14.8793655  -17.7795627   17.5661261
   342    342      1 0.00000000    4.0815948   -0.7159714    6.0412738
   343    343      1 0.00000000   12.8518738   -7.1960921   11.8014442
   344    344      1 0.00000000    3.8811030   -2.8806936   17.5811791
   345    345      1 0.00000000    5.9689985   -8.4046114   15.2633746
   346    346      1 0.00000000  -14.7901237  -15.5456306   15.7364492
   347    347      1 0.00000000  -15.3253298   18.4175577    8.6809320
   348    348      1 0.00000000   -4.0080824   -7.0289491  -15.4542564
   349    349      1 0.00000000    2.7746314   16.9565089   -5.6059952
   350    350      1 0.00000000    1.7407583  -11.0040716   15.2788827
   351    351      1 0.00000000  -15.4173176   12.7871635   -8.4401485
   352    352      1 0.00000000   -1.1508656    3.3737592    6.6400607
   353    353      1 0.00000000   17.9474744   10.2485979    1.0441164
   354    354      1 0.00000000  -14.1531307    3.0835429  -18.3810416
   355    355      1 0.00000000  -19.4875009   17.9141630  -10.3763549
   356    356      1 0.00000000   15.0734194   11.4101163   -3.8276661
   357    357      1 0.00000000   15.0443723  -10.9617654   16.8892568
   358    358      1 0.00000000   -7.8421553   12.4947127    8.4430125
   359    359      1 0.00000000   16.5264498    5.8214818   -0.4400569
   360    360      1 0.00000000   -8.1171509    3.0469916   12.9138037
   361    361      1 0.00000000    0.9905771    2.6263744   -7.7745614
   362    362      1 0.00000000   -2.9588862   -8.6457421    1.7985384
   363    363      1 0.00000000   18.2966922   17.6067148   -5.0588276
   364    364      1 0.00000000   -3.2372246   -7.1451313   10.6543053
   365    365      1 0.00000000   -1.1473588  -17.8314856   -0.9292750
   366    366      1 0.00000000  -19.2602406  -10.4788602   13.9295433
   367    367      1 0.00000000    2.7426751    2.2743860    1.4643996
   368    368      1 0.00000000    7.5306821    7.0506153   -6.2522041
   369    369      1 0.00000000  -18.1280529  -19.4041613  -14.5815036
   370    370      1 0.00000000    9.3583998   -1.1724464    4.8656349
   371    371      1 0.00000000    5.6095134   -9.4775664    7.2055375
   372    372      1 0.00000000  -13.7248696  -10.0411730   15.0767814
   373    373      1 0.00000000  -18.2291061   16.2741499   10.7108528
   374    374      1 0.00000000   -2.7489970    7.9674334    3.6839204
   375    375      1 0.00000000  -17.1083625   17.3567330    4.5946940
   376    376      1 0.00000000    1.3683595    2.3216876  -15.7721940
   377    377      1 0.00000000   16.6501079  -13.2019947    1.9150833
   378    378      1 0.00000000  -19.8842533  -18.6247248   16.2901337
   379    379      1 0.00000000    3.7289156   -5.7673522   12.5080149
   380    380      1 0.00000000   -5.9001837   13.1467383   -8.5611100
   381    381      1 0.00000000    8.8885832   10.0094566   -2.6300367
   382    382      1 0.00000000    5.8770554    3.5462535   -4.9350672
   383    383      1 0.00000000   -7.3336356   -8.2408428   13.6494037
   384    384      1 0.00000000  -15.9819419   -0.1870868  -10.8859452
   385    385      1 0.00000000  -17.2207437    2.4057631   15.1474454
   386    386      1 0.00000000    4.1505718   10.3487559  -17.4420168
   387    387      1 0.00000000   -8.5661240   17.3383401  -18.0275747
   388    388      1 0.00000000  -19.1701590  -11.3477179    9.4732945
   389    389      1 0.00000000   17.5890062  -16.7561716  -18.6459906
   390    390      1 0.00000000  -15.4960082    7.0485479  -14.5584177
   391    391      1 0.00000000  -10.5145621  -12.7509587   10.3052217
   392    392      1 0.00000000  -14.4534486   11.2222192  -13.5071209
   393    393      1 0.00000000   19.9935074   -1.9428492    0.9363352
   394    394      1 0.00000000  -10.5878020   15.7285969   13.8241873
   395    395      1 0.00000000    1.4723662   15.6470414   11.3478987
   396    396      1 0.00000000   -1.4031298  -10.6667972   12.7680274
   397    397      1 0.00000000  -10.0116005   -2.0369310  -10.2192389
   398    398      1 0.00000000  -14.3048969  -15.9109280  -12.2964438
   399    399      1 0.00000000    5.0176135   12.8838388   16.2722548
   400    400      1 0.00000000   -6.6269794  -12.0082225    9.1888664
