LAMMPS data file via write_data, version 31 Mar 2017, timestep = 86

501 atoms
1 atom types

0.0000000000000000e+00 2.9000000000000000e+01 xlo xhi
0.0000000000000000e+00 2.9000000000000000e+01 ylo yhi
0.0000000000000000e+00 5.0000000000000000e+01 zlo zhi

Masses

1 107.868

Atoms # full

256 256 1 0.0000000000000000e+00 1.4420451679676118e+01 1.4429129154945167e+01 9.1068757124867989e+00 0 0 0
254 254 1 0.0000000000000000e+00 8.6233626596274640e+00 1.4424731311536423e+01 9.0881453586892054e+00 0 0 0
255 255 1 0.0000000000000000e+00 1.1529161095343067e+01 1.4429129154417192e+01 9.1068757121581463e+00 0 0 0
12 12 1 0.0000000000000000e+00 2.8243467483111626e+00 2.8247262956629609e+00 5.0560549662931233e+00 0 0 0
101 101 1 0.0000000000000000e+00 1.3746579545324982e+00 1.3747744520896041e+00 7.0474580921007810e+00 0 0 0
102 102 1 0.0000000000000000e+00 4.2744914397598954e+00 1.3747744528812635e+00 7.0470373086715732e+00 0 0 0
111 111 1 0.0000000000000000e+00 1.3746786378366898e+00 4.2746467038836711e+00 7.0474285491623361e+00 0 0 0
112 112 1 0.0000000000000000e+00 4.2745120122354585e+00 4.2746905243121409e+00 7.0472171565934794e+00 0 0 0
246 246 1 0.0000000000000000e+00 1.4424849524592139e+01 1.1523330719095011e+01 9.0881453578549305e+00 0 0 0
253 253 1 0.0000000000000000e+00 5.7214419245241288e+00 1.4424084719140376e+01 9.0798085444404766e+00 0 0 0
245 245 1 0.0000000000000000e+00 1.1524763248244845e+01 1.1523330718615156e+01 9.0881453576982665e+00 0 0 0
212 212 1 0.0000000000000000e+00 2.8247570179719097e+00 2.8247124793705876e+00 9.0766320784671723e+00 0 0 0
244 244 1 0.0000000000000000e+00 8.6211107275211916e+00 1.1521078790834883e+01 9.0814695747478478e+00 0 0 0
243 243 1 0.0000000000000000e+00 5.7219528006000644e+00 1.1523239538261947e+01 9.0790534325463543e+00 0 0 0
13 13 1 0.0000000000000000e+00 5.7240063553362237e+00 2.8248955362191182e+00 5.0555436718986977e+00 0 0 0
14 14 1 0.0000000000000000e+00 8.6239935745230518e+00 2.8252555501006609e+00 5.0549570050516719e+00 0 0 0
103 103 1 0.0000000000000000e+00 7.1742926175351087e+00 1.3747744507186914e+00 7.0460794314004964e+00 0 0 0
113 113 1 0.0000000000000000e+00 7.1742633355607293e+00 4.2746409710155397e+00 7.0465588672179322e+00 0 0 0
143 143 1 0.0000000000000000e+00 7.1757385008774000e+00 1.2975046858361390e+01 7.0548574360808836e+00 0 0 0
133 133 1 0.0000000000000000e+00 7.1741005215176257e+00 1.0074068586640690e+01 7.0505267731430949e+00 0 0 0
213 213 1 0.0000000000000000e+00 5.7246876169186720e+00 2.8245839153760226e+00 9.0761886296449994e+00 0 0 0
214 214 1 0.0000000000000000e+00 8.6245082902867072e+00 2.8242160674236949e+00 9.0751982506870270e+00 0 0 0
54 54 1 0.0000000000000000e+00 8.6306403993547889e+00 1.4426448373817404e+01 5.0695389711116245e+00 0 0 0
53 53 1 0.0000000000000000e+00 5.7294813305662498e+00 1.4425255506848854e+01 5.0619945616695663e+00 0 0 0
15 15 1 0.0000000000000000e+00 1.1524465815338177e+01 2.8255704721096477e+00 5.0546543161284880e+00 0 0 0
16 16 1 0.0000000000000000e+00 1.4425146960046694e+01 2.8255704726761413e+00 5.0546543167174613e+00 0 0 0
104 104 1 0.0000000000000000e+00 1.0074347878686414e+01 1.3747744468336005e+00 7.0450109616018555e+00 0 0 0
105 105 1 0.0000000000000000e+00 1.2974806387544158e+01 1.3747744453154924e+00 7.0445668141973323e+00 0 0 0
114 114 1 0.0000000000000000e+00 1.0074314407912118e+01 4.2746847612908718e+00 7.0458601166139729e+00 0 0 0
115 115 1 0.0000000000000000e+00 1.2974806386631409e+01 4.2747406189009727e+00 7.0456040886635467e+00 0 0 0
44 44 1 0.0000000000000000e+00 8.6286477612767438e+00 1.1528615824046845e+01 5.0661861218933284e+00 0 0 0
43 43 1 0.0000000000000000e+00 5.7276414765025354e+00 1.1525708188663286e+01 5.0599483989592065e+00 0 0 0
215 215 1 0.0000000000000000e+00 1.1524605066569711e+01 2.8238887094340703e+00 9.0742333000994027e+00 0 0 0
216 216 1 0.0000000000000000e+00 1.4425007708046151e+01 2.8238887101325090e+00 9.0742333006834954e+00 0 0 0
145 145 1 0.0000000000000000e+00 1.2974806388137813e+01 1.2979489049313639e+01 7.0671388017504206e+00 0 0 0
22 22 1 0.0000000000000000e+00 2.8246089291664527e+00 5.7245769971115976e+00 5.0561331499338138e+00 0 0 0
144 144 1 0.0000000000000000e+00 1.0077976853811686e+01 1.2977944913828997e+01 7.0644434898103148e+00 0 0 0
32 32 1 0.0000000000000000e+00 2.8251391273420032e+00 8.6243467969271173e+00 5.0561301098443012e+00 0 0 0
121 121 1 0.0000000000000000e+00 1.3747224572089911e+00 7.1744800778881759e+00 7.0472171576303779e+00 0 0 0
122 122 1 0.0000000000000000e+00 4.2745534477943234e+00 7.1745215146868082e+00 7.0476456125698981e+00 0 0 0
135 135 1 0.0000000000000000e+00 1.2974806386538759e+01 1.0076715940334791e+01 7.0566867648535894e+00 0 0 0
222 222 1 0.0000000000000000e+00 2.8246110871236825e+00 5.7245791535655322e+00 9.0768054438257035e+00 0 0 0
134 134 1 0.0000000000000000e+00 1.0075078793435155e+01 1.0075706561421084e+01 7.0548574353925320e+00 0 0 0
232 232 1 0.0000000000000000e+00 2.8242169186684838e+00 8.6243863026360721e+00 9.0769529843883454e+00 0 0 0
23 23 1 0.0000000000000000e+00 5.7243787281888263e+00 5.7251071947516845e+00 5.0561301082328285e+00 0 0 0
24 24 1 0.0000000000000000e+00 8.6244274573820032e+00 5.7263272394354576e+00 5.0564461034134593e+00 0 0 0
33 33 1 0.0000000000000000e+00 5.7253117360971579e+00 8.6252798051638990e+00 5.0573169563789335e+00 0 0 0
34 34 1 0.0000000000000000e+00 8.6257401195891763e+00 8.6276095387978504e+00 5.0599483982590252e+00 0 0 0
123 123 1 0.0000000000000000e+00 7.1741872330188396e+00 7.1744180012591068e+00 7.0480448464126892e+00 0 0 0
223 223 1 0.0000000000000000e+00 5.7244182352109485e+00 5.7241849848349045e+00 9.0769529829460929e+00 0 0 0
224 224 1 0.0000000000000000e+00 8.6241085323589921e+00 5.7230651877658314e+00 9.0764740445470391e+00 0 0 0
233 233 1 0.0000000000000000e+00 5.7237651488656258e+00 8.6237332157598807e+00 9.0782749431801477e+00 0 0 0
234 234 1 0.0000000000000000e+00 8.6232714718402868e+00 8.6219208639129246e+00 9.0790534310457325e+00 0 0 0
25 25 1 0.0000000000000000e+00 1.1524672550811307e+01 5.7273677865147672e+00 5.0569011818590077e+00 0 0 0
26 26 1 0.0000000000000000e+00 1.4424940221742368e+01 5.7273677871907012e+00 5.0569011824806882e+00 0 0 0
35 35 1 0.0000000000000000e+00 1.1525287439068364e+01 8.6294493887641366e+00 5.0619945603469683e+00 0 0 0
36 36 1 0.0000000000000000e+00 1.4424325332694170e+01 8.6294493894247974e+00 5.0619945608007280e+00 0 0 0
124 124 1 0.0000000000000000e+00 1.0074326287205794e+01 7.1748288922008916e+00 7.0487987752415284e+00 0 0 0
125 125 1 0.0000000000000000e+00 1.2974806385880925e+01 7.1751488687604246e+00 7.0492461814300746e+00 0 0 0
225 225 1 0.0000000000000000e+00 1.1524401275403497e+01 5.7222376488576661e+00 9.0758558118548791e+00 0 0 0
226 226 1 0.0000000000000000e+00 1.4425211497129451e+01 5.7222376494797995e+00 9.0758558120092694e+00 0 0 0
235 235 1 0.0000000000000000e+00 1.1524116650378895e+01 8.6214099836084852e+00 9.0798085428490776e+00 0 0 0
236 236 1 0.0000000000000000e+00 1.4425496120499991e+01 8.6214099844233303e+00 9.0798085432390199e+00 0 0 0
56 56 1 0.0000000000000000e+00 1.4422531487361848e+01 1.4427049347610740e+01 5.0715714692728060e+00 0 0 0
42 42 1 0.0000000000000000e+00 2.8263591778897279e+00 1.1524395526031137e+01 5.0564461048869296e+00 0 0 0
55 55 1 0.0000000000000000e+00 1.1527081289537938e+01 1.4427049347114108e+01 5.0715714690292666e+00 0 0 0
52 52 1 0.0000000000000000e+00 2.8273997291651436e+00 1.4424640618997621e+01 5.0569011815284339e+00 0 0 0
131 131 1 0.0000000000000000e+00 1.3746729065940912e+00 1.0074231403049632e+01 7.0465588692542989e+00 0 0 0
132 132 1 0.0000000000000000e+00 4.2744499373534861e+00 1.0074155301701959e+01 7.0480448473198507e+00 0 0 0
141 141 1 0.0000000000000000e+00 1.3747167016831943e+00 1.2974282475035434e+01 7.0458601176014879e+00 0 0 0
142 142 1 0.0000000000000000e+00 4.2748608320732231e+00 1.2974294355844542e+01 7.0487987765390239e+00 0 0 0
46 46 1 0.0000000000000000e+00 1.4423132462061719e+01 1.1530608457905569e+01 5.0695389698011013e+00 0 0 0
242 242 1 0.0000000000000000e+00 2.8230971255172701e+00 1.1524076600126847e+01 9.0764740464362728e+00 0 0 0
45 45 1 0.0000000000000000e+00 1.1526480312480157e+01 1.1530608457511070e+01 5.0695389693045332e+00 0 0 0
252 252 1 0.0000000000000000e+00 2.8222695903415147e+00 1.4424369343925262e+01 9.0758558132196434e+00 0 0 0
445 445 1 0.0000000000000000e+00 1.2974806387173835e+01 1.2965532969576106e+01 1.1124998278707990e+01 0 0 0
346 346 1 0.0000000000000000e+00 1.4426718837219873e+01 1.1499703085736634e+01 1.3107245978645988e+01 0 0 0
444 444 1 0.0000000000000000e+00 1.0062718446409875e+01 1.2962686507361287e+01 1.1109742451440303e+01 0 0 0
312 312 1 0.0000000000000000e+00 2.8247857413931174e+00 2.8245891840530262e+00 1.3097178638194800e+01 0 0 0
401 401 1 0.0000000000000000e+00 1.3748355186595449e+00 1.3747744516487721e+00 1.1105945879399767e+01 0 0 0
402 402 1 0.0000000000000000e+00 4.2748712919643248e+00 1.3747744531433093e+00 1.1105816957246658e+01 0 0 0
411 411 1 0.0000000000000000e+00 1.3747324725410377e+00 4.2747005381298822e+00 1.1105996083407190e+01 0 0 0
412 412 1 0.0000000000000000e+00 4.2746831013032622e+00 4.2743646511639017e+00 1.1106093000642282e+01 0 0 0
345 345 1 0.0000000000000000e+00 1.1522893935293371e+01 1.1499703086081933e+01 1.3107245979529806e+01 0 0 0
443 443 1 0.0000000000000000e+00 7.1664873911974087e+00 1.2972421643510856e+01 1.1110163141004751e+01 0 0 0
313 313 1 0.0000000000000000e+00 5.7248085667015181e+00 2.8242470945737290e+00 1.3097377527422790e+01 0 0 0
314 314 1 0.0000000000000000e+00 8.6248434349129663e+00 2.8236302308294845e+00 1.3097634902052404e+01 0 0 0
403 403 1 0.0000000000000000e+00 7.1748672723473872e+00 1.3747744507482151e+00 1.1105500341320090e+01 0 0 0
413 413 1 0.0000000000000000e+00 7.1746478637794766e+00 4.2736843672347700e+00 1.1106045509659094e+01 0 0 0
433 433 1 0.0000000000000000e+00 7.1724565934643474e+00 1.0072424658555619e+01 1.1109530263086530e+01 0 0 0
354 354 1 0.0000000000000000e+00 8.5997350260622500e+00 1.4422861999013660e+01 1.3107245978167517e+01 0 0 0
315 315 1 0.0000000000000000e+00 1.1524851899361160e+01 2.8224269652924039e+00 1.3097769322353567e+01 0 0 0
316 316 1 0.0000000000000000e+00 1.4424760875790284e+01 2.8224269655013390e+00 1.3097769322598124e+01 0 0 0
404 404 1 0.0000000000000000e+00 1.0074745948712307e+01 1.3747744479932449e+00 1.1104803144843835e+01 0 0 0
405 405 1 0.0000000000000000e+00 1.2974806387341911e+01 1.3747744470760335e+00 1.1104319728884086e+01 0 0 0
414 414 1 0.0000000000000000e+00 1.0074546432596607e+01 4.2720892067038125e+00 1.1105411182854455e+01 0 0 0
415 415 1 0.0000000000000000e+00 1.2974806386963786e+01 4.2711613586207768e+00 1.1104865019535092e+01 0 0 0
435 435 1 0.0000000000000000e+00 1.2974806385938594e+01 1.0064494175667910e+01 1.1110350865599859e+01 0 0 0
322 322 1 0.0000000000000000e+00 2.8243179306630886e+00 5.7242859958203534e+00 1.3097526903062827e+01 0 0 0
434 434 1 0.0000000000000000e+00 1.0072453578464431e+01 1.0066455452423526e+01 1.1110163140338395e+01 0 0 0
332 332 1 0.0000000000000000e+00 2.8233782022691951e+00 8.6241830914724034e+00 1.3098077371288730e+01 0 0 0
421 421 1 0.0000000000000000e+00 1.3743965854815934e+00 7.1746511661283110e+00 1.1106093001699522e+01 0 0 0
422 422 1 0.0000000000000000e+00 4.2740684582073571e+00 7.1740365236043386e+00 1.1106816308415192e+01 0 0 0
323 323 1 0.0000000000000000e+00 5.7242150257335203e+00 5.7233462671865443e+00 1.3098077371431884e+01 0 0 0
324 324 1 0.0000000000000000e+00 8.6243808734054319e+00 5.7215363534428363e+00 1.3098659574620699e+01 0 0 0
333 333 1 0.0000000000000000e+00 5.7229674364539376e+00 8.6229355021701437e+00 1.3099179487038271e+01 0 0 0
334 334 1 0.0000000000000000e+00 8.6232945584747966e+00 8.6201402245130314e+00 1.3100476098369560e+01 0 0 0
423 423 1 0.0000000000000000e+00 7.1739315924099252e+00 7.1727868704521534e+00 1.1107579309237790e+01 0 0 0
325 325 1 0.0000000000000000e+00 1.1524717871715511e+01 5.7173364432102476e+00 1.3098850260827540e+01 0 0 0
326 326 1 0.0000000000000000e+00 1.4424894901780439e+01 5.7173364430562188e+00 1.3098850260746515e+01 0 0 0
335 335 1 0.0000000000000000e+00 1.1524361092098321e+01 8.6106659508947523e+00 1.3101061245129349e+01 0 0 0
336 336 1 0.0000000000000000e+00 1.4425251679235881e+01 8.6106659506757168e+00 1.3101061244973401e+01 0 0 0
424 424 1 0.0000000000000000e+00 1.0073864130580009e+01 7.1692963123577975e+00 1.1107197617125557e+01 0 0 0
425 425 1 0.0000000000000000e+00 1.2974806386001447e+01 7.1674717643178445e+00 1.1106528322380855e+01 0 0 0
356 356 1 0.0000000000000000e+00 1.4469122592486155e+01 1.4380458242226414e+01 1.3112603769438527e+01 0 0 0
342 342 1 0.0000000000000000e+00 2.8215682912822757e+00 1.1524348939732722e+01 1.3098659576644589e+01 0 0 0
355 355 1 0.0000000000000000e+00 1.1480490183132391e+01 1.4380458242526798e+01 1.3112603770812468e+01 0 0 0
352 352 1 0.0000000000000000e+00 2.8173683825818956e+00 1.4424685937959850e+01 1.3098850263084287e+01 0 0 0
431 431 1 0.0000000000000000e+00 1.3737163033915663e+00 1.0074615930362128e+01 1.1106045511021817e+01 0 0 0
432 432 1 0.0000000000000000e+00 4.2728188069874911e+00 1.0073899659178853e+01 1.1107579310842841e+01 0 0 0
441 441 1 0.0000000000000000e+00 1.3721211455077158e+00 1.2974514499589231e+01 1.1105411185078211e+01 0 0 0
442 442 1 0.0000000000000000e+00 4.2693282509174670e+00 1.2973832198253550e+01 1.1107197618879415e+01 0 0 0
343 343 1 0.0000000000000000e+00 5.7201721617637942e+00 1.1523262625769966e+01 1.3100476099222657e+01 0 0 0
344 344 1 0.0000000000000000e+00 8.6202515580302173e+00 1.1520219621491062e+01 1.3102598400860892e+01 0 0 0
353 353 1 0.0000000000000000e+00 5.7106978914309057e+00 1.4424329159326753e+01 1.3101061245740979e+01 0 0 0
296 296 1 0.0000000000000000e+00 1.4425211497027000e+01 2.6027311245103149e+01 9.0758558135600182e+00 0 0 0
62 62 1 0.0000000000000000e+00 2.8273997291059776e+00 1.7324908290147956e+01 5.0569011805329875e+00 0 0 0
151 151 1 0.0000000000000000e+00 1.3747725612233144e+00 1.5874774453320251e+01 7.0456040880717872e+00 0 0 0
152 152 1 0.0000000000000000e+00 4.2751808101249482e+00 1.5874774454467502e+01 7.0492461816052163e+00 0 0 0
161 161 1 0.0000000000000000e+00 1.3747167015685360e+00 1.8775266430971623e+01 7.0458601160723777e+00 0 0 0
162 162 1 0.0000000000000000e+00 4.2748608318423900e+00 1.8775254552849098e+01 7.0487987755095611e+00 0 0 0
295 295 1 0.0000000000000000e+00 1.1524401276197231e+01 2.6027311244973060e+01 9.0758558134239991e+00 0 0 0
262 262 1 0.0000000000000000e+00 2.8222695890036933e+00 1.7325179563691680e+01 9.0758558123915307e+00 0 0 0
63 63 1 0.0000000000000000e+00 5.7294813311915247e+00 1.7324293399749195e+01 5.0619945606368804e+00 0 0 0
64 64 1 0.0000000000000000e+00 8.6306403993904350e+00 1.7323100523901928e+01 5.0695389704509370e+00 0 0 0
153 153 1 0.0000000000000000e+00 7.1767478817983594e+00 1.5874774451926680e+01 7.0566867647253355e+00 0 0 0
163 163 1 0.0000000000000000e+00 7.1757385007301089e+00 1.8774502045061482e+01 7.0548574351175377e+00 0 0 0
263 263 1 0.0000000000000000e+00 5.7214419237672098e+00 1.7325464187515486e+01 9.0798085439256973e+00 0 0 0
264 264 1 0.0000000000000000e+00 8.6233626593389285e+00 1.7324817587468431e+01 9.0881453576842333e+00 0 0 0
65 65 1 0.0000000000000000e+00 1.1527081290159709e+01 1.7322499545173446e+01 5.0715714685035280e+00 0 0 0
66 66 1 0.0000000000000000e+00 1.4422531487881617e+01 1.7322499545481644e+01 5.0715714685665345e+00 0 0 0
154 154 1 0.0000000000000000e+00 1.0079520991738212e+01 1.5874774447693657e+01 7.0671388021320452e+00 0 0 0
155 155 1 0.0000000000000000e+00 1.2974806388757324e+01 1.5874774446366022e+01 7.0684378781079769e+00 0 0 0
164 164 1 0.0000000000000000e+00 1.0077976854396532e+01 1.8771603982014199e+01 7.0644434894591344e+00 0 0 0
165 165 1 0.0000000000000000e+00 1.2974806388792498e+01 1.8770059843630218e+01 7.0671388021695023e+00 0 0 0
265 265 1 0.0000000000000000e+00 1.1529161094514279e+01 1.7320419739733993e+01 9.1068757126173452e+00 0 0 0
266 266 1 0.0000000000000000e+00 1.4420451681067791e+01 1.7320419739966933e+01 9.1068757129261577e+00 0 0 0
195 195 1 0.0000000000000000e+00 1.2974806387075638e+01 2.7474808272353613e+01 7.0456040884055628e+00 0 0 0
72 72 1 0.0000000000000000e+00 2.8263591779372126e+00 2.0225153382978597e+01 5.0564461021356744e+00 0 0 0
194 194 1 0.0000000000000000e+00 1.0074314409155040e+01 2.7474864134033258e+01 7.0458601163632784e+00 0 0 0
82 82 1 0.0000000000000000e+00 2.8251391287481233e+00 2.3125202111208043e+01 5.0561301085566122e+00 0 0 0
171 171 1 0.0000000000000000e+00 1.3746729070972212e+00 2.1675317502480596e+01 7.0465588671640047e+00 0 0 0
172 172 1 0.0000000000000000e+00 4.2744499376756186e+00 2.1675393605926310e+01 7.0480448466463201e+00 0 0 0
185 185 1 0.0000000000000000e+00 1.2974806386367774e+01 2.4574400024708840e+01 7.0492461824237589e+00 0 0 0
272 272 1 0.0000000000000000e+00 2.8230971260347704e+00 2.0225472307229701e+01 9.0764740454050283e+00 0 0 0
184 184 1 0.0000000000000000e+00 1.0074326288078003e+01 2.4574720003925147e+01 7.0487987760126591e+00 0 0 0
282 282 1 0.0000000000000000e+00 2.8242169195638134e+00 2.3125162603802853e+01 9.0769529836503118e+00 0 0 0
73 73 1 0.0000000000000000e+00 5.7276414769997492e+00 2.0223840719270171e+01 5.0599483977718727e+00 0 0 0
74 74 1 0.0000000000000000e+00 8.6286477629320508e+00 2.0220933075058024e+01 5.0661861225362550e+00 0 0 0
83 83 1 0.0000000000000000e+00 5.7253117379677718e+00 2.3124269102569798e+01 5.0573169559983775e+00 0 0 0
84 84 1 0.0000000000000000e+00 8.6257401217714804e+00 2.3121939360666524e+01 5.0599483982842397e+00 0 0 0
173 173 1 0.0000000000000000e+00 7.1741005217080271e+00 2.1675480317290980e+01 7.0505267727561574e+00 0 0 0
273 273 1 0.0000000000000000e+00 5.7219528014002794e+00 2.0226309367713778e+01 9.0790534313141116e+00 0 0 0
274 274 1 0.0000000000000000e+00 8.6211107287985378e+00 2.0228470108847031e+01 9.0814695745317824e+00 0 0 0
283 283 1 0.0000000000000000e+00 5.7237651501124835e+00 2.3125815690437758e+01 9.0782749441265231e+00 0 0 0
284 284 1 0.0000000000000000e+00 8.6232714724142632e+00 2.3127628035931838e+01 9.0790534321422847e+00 0 0 0
75 75 1 0.0000000000000000e+00 1.1526480313468092e+01 2.0218940435411302e+01 5.0695389708658132e+00 0 0 0
76 76 1 0.0000000000000000e+00 1.4423132463321744e+01 2.0218940435881922e+01 5.0695389712625083e+00 0 0 0
85 85 1 0.0000000000000000e+00 1.1525287441032315e+01 2.3120099503560208e+01 5.0619945608154788e+00 0 0 0
86 86 1 0.0000000000000000e+00 1.4424325332654350e+01 2.3120099503680986e+01 5.0619945613368973e+00 0 0 0
174 174 1 0.0000000000000000e+00 1.0075078793933173e+01 2.1673842335854609e+01 7.0548574355273681e+00 0 0 0
175 175 1 0.0000000000000000e+00 1.2974806387385886e+01 2.1672832953482292e+01 7.0566867654571572e+00 0 0 0
275 275 1 0.0000000000000000e+00 1.1524763248717701e+01 2.0226218175718344e+01 9.0881453583421177e+00 0 0 0
276 276 1 0.0000000000000000e+00 1.4424849525928982e+01 2.0226218176016886e+01 9.0881453585584069e+00 0 0 0
285 285 1 0.0000000000000000e+00 1.1524116651504700e+01 2.3128138910504290e+01 9.0798085447664594e+00 0 0 0
286 286 1 0.0000000000000000e+00 1.4425496121842109e+01 2.3128138910584493e+01 9.0798085451647097e+00 0 0 0
96 96 1 0.0000000000000000e+00 1.4424940222272197e+01 2.6022181104889349e+01 5.0569011820270777e+00 0 0 0
92 92 1 0.0000000000000000e+00 2.8246089311871123e+00 2.6024971908871407e+01 5.0561331514765033e+00 0 0 0
181 181 1 0.0000000000000000e+00 1.3747224578970709e+00 2.4575068825801708e+01 7.0472171582094836e+00 0 0 0
182 182 1 0.0000000000000000e+00 4.2745534490939061e+00 2.4575027390768369e+01 7.0476456134999008e+00 0 0 0
191 191 1 0.0000000000000000e+00 1.3746786387981635e+00 2.7474902200391455e+01 7.0474285504882532e+00 0 0 0
192 192 1 0.0000000000000000e+00 4.2745120132376293e+00 2.7474858381751897e+01 7.0472171575607252e+00 0 0 0
95 95 1 0.0000000000000000e+00 1.1524672550974234e+01 2.6022181104860280e+01 5.0569011814840321e+00 0 0 0
292 292 1 0.0000000000000000e+00 2.8246110889500149e+00 2.6024969751002264e+01 9.0768054447976976e+00 0 0 0
93 93 1 0.0000000000000000e+00 5.7243787291327726e+00 2.6024441710551546e+01 5.0561301092519759e+00 0 0 0
94 94 1 0.0000000000000000e+00 8.6244274580782339e+00 2.6023221658427801e+01 5.0564461034335828e+00 0 0 0
183 183 1 0.0000000000000000e+00 7.1741872344857862e+00 2.4575130900806215e+01 7.0480448471827932e+00 0 0 0
193 193 1 0.0000000000000000e+00 7.1742633369460025e+00 2.7474907931205337e+01 7.0465588673196402e+00 0 0 0
293 293 1 0.0000000000000000e+00 5.7244182365656737e+00 2.6025363920442032e+01 9.0769529837354543e+00 0 0 0
294 294 1 0.0000000000000000e+00 8.6241085338263890e+00 2.6026483710911940e+01 9.0764740462648312e+00 0 0 0
2 2 1 0.0000000000000000e+00 2.8243467490288721e+00 2.8924822609082579e+01 5.0560549676544300e+00 0 -1 0
202 202 1 0.0000000000000000e+00 2.8247570200077821e+00 2.8924836425405463e+01 9.0766320790214010e+00 0 -1 0
3 3 1 0.0000000000000000e+00 5.7240063551998377e+00 2.8924653368841259e+01 5.0555436721843154e+00 0 -1 0
4 4 1 0.0000000000000000e+00 8.6239935736747295e+00 2.8924293348903500e+01 5.0549570045991956e+00 0 -1 0
203 203 1 0.0000000000000000e+00 5.7246876174187946e+00 2.8924964988066186e+01 9.0761886305739417e+00 0 -1 0
204 204 1 0.0000000000000000e+00 8.6245082904561006e+00 2.8925332829501340e+01 9.0751982513898906e+00 0 -1 0
5 5 1 0.0000000000000000e+00 1.1524465815446638e+01 2.8923978420648087e+01 5.0546543153371157e+00 0 -1 0
6 6 1 0.0000000000000000e+00 1.4425146959908924e+01 2.8923978420667655e+01 5.0546543160038730e+00 0 -1 0
205 205 1 0.0000000000000000e+00 1.1524605066689450e+01 2.8925660182623361e+01 9.0742333013342922e+00 0 -1 0
206 206 1 0.0000000000000000e+00 1.4425007707624157e+01 2.8925660182695452e+01 9.0742333018002466e+00 0 -1 0
501 501 1 0.0000000000000000e+00 1.2974806389902165e+01 1.5874774446310358e+01 1.4870488462920688e+01 0 0 0
362 362 1 0.0000000000000000e+00 2.8173683832174725e+00 1.7324862968961732e+01 1.3098850263185080e+01 0 0 0
451 451 1 0.0000000000000000e+00 1.3711932986064379e+00 1.5874774452674869e+01 1.1104865022045368e+01 0 0 0
452 452 1 0.0000000000000000e+00 4.2675037054180800e+00 1.5874774453889795e+01 1.1106528324735299e+01 0 0 0
461 461 1 0.0000000000000000e+00 1.3721211464848644e+00 1.8775034406466808e+01 1.1105411185103131e+01 0 0 0
462 462 1 0.0000000000000000e+00 4.2693282514065061e+00 1.8775716709564879e+01 1.1107197618401988e+01 0 0 0
363 363 1 0.0000000000000000e+00 5.7106978916648750e+00 1.7325219747192989e+01 1.3101061246214151e+01 0 0 0
364 364 1 0.0000000000000000e+00 8.5997350273157789e+00 1.7326686901385020e+01 1.3107245978454936e+01 0 0 0
453 453 1 0.0000000000000000e+00 7.1645261168353205e+00 1.5874774452557672e+01 1.1110350865996928e+01 0 0 0
463 463 1 0.0000000000000000e+00 7.1664873911965739e+00 1.8777127260244090e+01 1.1110163140569490e+01 0 0 0
365 365 1 0.0000000000000000e+00 1.1480490182939823e+01 1.7369090652397805e+01 1.3112603769941943e+01 0 0 0
366 366 1 0.0000000000000000e+00 1.4469122593268777e+01 1.7369090652932829e+01 1.3112603768928862e+01 0 0 0
454 454 1 0.0000000000000000e+00 1.0065564910351082e+01 1.5874774448335232e+01 1.1124998278196806e+01 0 0 0
455 455 1 0.0000000000000000e+00 1.2974806388403707e+01 1.5874774446865640e+01 1.1184014240350184e+01 0 0 0
464 464 1 0.0000000000000000e+00 1.0062718445646508e+01 1.8786862389985142e+01 1.1109742451127431e+01 0 0 0
465 465 1 0.0000000000000000e+00 1.2974806387814603e+01 1.8784015924827923e+01 1.1124998277972297e+01 0 0 0
495 495 1 0.0000000000000000e+00 1.2974806387329934e+01 2.7478387536507892e+01 1.1104865022795229e+01 0 0 0
372 372 1 0.0000000000000000e+00 2.8215682917010203e+00 2.0225199967277181e+01 1.3098659577239717e+01 0 0 0
494 494 1 0.0000000000000000e+00 1.0074546433979423e+01 2.7477459690085766e+01 1.1105411185717658e+01 0 0 0
382 382 1 0.0000000000000000e+00 2.8233782008829107e+00 2.3125365814534543e+01 1.3098077372556757e+01 0 0 0
471 471 1 0.0000000000000000e+00 1.3737163037308850e+00 2.1674932974539590e+01 1.1106045511213896e+01 0 0 0
472 472 1 0.0000000000000000e+00 4.2728188067779982e+00 2.1675649247221429e+01 1.1107579310950072e+01 0 0 0
373 373 1 0.0000000000000000e+00 5.7201721627216866e+00 2.0226286281710884e+01 1.3100476100189136e+01 0 0 0
374 374 1 0.0000000000000000e+00 8.6202515579962391e+00 2.0229329278776490e+01 1.3102598401326045e+01 0 0 0
383 383 1 0.0000000000000000e+00 5.7229674348369617e+00 2.3126613404354018e+01 1.3099179488764578e+01 0 0 0
384 384 1 0.0000000000000000e+00 8.6232945583806888e+00 2.3129408674836359e+01 1.3100476100460813e+01 0 0 0
473 473 1 0.0000000000000000e+00 7.1724565929898390e+00 2.1677124245549773e+01 1.1109530263371415e+01 0 0 0
375 375 1 0.0000000000000000e+00 1.1522893936339713e+01 2.0249845807775873e+01 1.3107245978698680e+01 0 0 0
376 376 1 0.0000000000000000e+00 1.4426718838244547e+01 2.0249845808808772e+01 1.3107245977932772e+01 0 0 0
385 385 1 0.0000000000000000e+00 1.1524361092418316e+01 2.3138882942746651e+01 1.3101061246971733e+01 0 0 0
386 386 1 0.0000000000000000e+00 1.4425251680748195e+01 2.3138882943617293e+01 1.3101061246821637e+01 0 0 0
474 474 1 0.0000000000000000e+00 1.0072453577935310e+01 2.1683093445081983e+01 1.1110163141194702e+01 0 0 0
475 475 1 0.0000000000000000e+00 1.2974806386819829e+01 2.1685054718561283e+01 1.1110350865987787e+01 0 0 0
485 485 1 0.0000000000000000e+00 1.2974806386339262e+01 2.4582077129263332e+01 1.1106528325612585e+01 0 0 0
392 392 1 0.0000000000000000e+00 2.8243179304181387e+00 2.6025262909250550e+01 1.3097526902553099e+01 0 0 0
481 481 1 0.0000000000000000e+00 1.3743965848884532e+00 2.4574897736641553e+01 1.1106093000872930e+01 0 0 0
482 482 1 0.0000000000000000e+00 4.2740684583298982e+00 2.4575512381481222e+01 1.1106816309685630e+01 0 0 0
491 491 1 0.0000000000000000e+00 1.3747324728729160e+00 2.7474848366126519e+01 1.1105996082912966e+01 0 0 0
492 492 1 0.0000000000000000e+00 4.2746831022127099e+00 2.7475184254479942e+01 1.1106093001943158e+01 0 0 0
393 393 1 0.0000000000000000e+00 5.7242150255660178e+00 2.6026202638185790e+01 1.3098077372208639e+01 0 0 0
394 394 1 0.0000000000000000e+00 8.6243808730678921e+00 2.6028012545592492e+01 1.3098659577450208e+01 0 0 0
483 483 1 0.0000000000000000e+00 7.1739315925683886e+00 2.4576762031963245e+01 1.1107579311517121e+01 0 0 0
493 493 1 0.0000000000000000e+00 7.1746478651960119e+00 2.7475864535138118e+01 1.1106045511898056e+01 0 0 0
395 395 1 0.0000000000000000e+00 1.1524717871582908e+01 2.6032212451913583e+01 1.3098850263502847e+01 0 0 0
396 396 1 0.0000000000000000e+00 1.4424894902486670e+01 2.6032212452684519e+01 1.3098850263512713e+01 0 0 0
484 484 1 0.0000000000000000e+00 1.0073864131255929e+01 2.4580252584804999e+01 1.1107197619541992e+01 0 0 0
302 302 1 0.0000000000000000e+00 2.8247857422160831e+00 2.8924959721294531e+01 1.3097178637137070e+01 0 -1 0
303 303 1 0.0000000000000000e+00 5.7248085668250344e+00 2.8925301810714881e+01 1.3097377528466804e+01 0 -1 0
304 304 1 0.0000000000000000e+00 8.6248434350522523e+00 2.8925918669517166e+01 1.3097634903804698e+01 0 -1 0
305 305 1 0.0000000000000000e+00 1.1524851899262552e+01 2.8927121931379666e+01 1.3097769324407071e+01 0 -1 0
306 306 1 0.0000000000000000e+00 1.4424760875754995e+01 2.8927121931767523e+01 1.3097769324646865e+01 0 -1 0
251 251 1 0.0000000000000000e+00 2.8923920651295468e+01 1.4424573132666128e+01 9.0742333014691408e+00 -1 0 0
17 17 1 0.0000000000000000e+00 1.7325619200558691e+01 2.8252555511200299e+00 5.0549570066044591e+00 0 0 0
106 106 1 0.0000000000000000e+00 1.5875264896703861e+01 1.3747744471047774e+00 7.0450109624404007e+00 0 0 0
107 107 1 0.0000000000000000e+00 1.8775320157538257e+01 1.3747744515709031e+00 7.0460794327053922e+00 0 0 0
116 116 1 0.0000000000000000e+00 1.5875298365540756e+01 4.2746847623534592e+00 7.0458601173046702e+00 0 0 0
117 117 1 0.0000000000000000e+00 1.8775349437761587e+01 4.2746409720471883e+00 7.0465588680786118e+00 0 0 0
241 241 1 0.0000000000000000e+00 2.8924248005924689e+01 1.1524476354469103e+01 9.0751982523501873e+00 -1 0 0
217 217 1 0.0000000000000000e+00 1.7325104484685529e+01 2.8242160681187163e+00 9.0751982511348643e+00 0 0 0
51 51 1 0.0000000000000000e+00 2.8925602413807859e+01 1.4424433878934664e+01 5.0546543162839725e+00 -1 0 0
41 41 1 0.0000000000000000e+00 2.8925287487997519e+01 1.1523961638492320e+01 5.0549570074493326e+00 -1 0 0
18 18 1 0.0000000000000000e+00 2.0225606419293246e+01 2.8248955367988238e+00 5.0555436725665439e+00 0 0 0
19 19 1 0.0000000000000000e+00 2.3125266026277188e+01 2.8247262960242319e+00 5.0560549653243694e+00 0 0 0
108 108 1 0.0000000000000000e+00 2.1675121336259977e+01 1.3747744536366435e+00 7.0470373087237972e+00 0 0 0
118 118 1 0.0000000000000000e+00 2.1675100761888196e+01 4.2746905248492935e+00 7.0472171563745727e+00 0 0 0
231 231 1 0.0000000000000000e+00 2.8924615849820327e+01 8.6246556816715412e+00 9.0761886310668629e+00 -1 0 0
221 221 1 0.0000000000000000e+00 2.8924744413162887e+01 5.7247250821341078e+00 9.0766320793177808e+00 -1 0 0
218 218 1 0.0000000000000000e+00 2.0224925157637113e+01 2.8245839165801976e+00 9.0761886299787928e+00 0 0 0
219 219 1 0.0000000000000000e+00 2.3124855757084799e+01 2.8247124803477028e+00 9.0766320785156935e+00 0 0 0
31 31 1 0.0000000000000000e+00 2.8924927469647272e+01 8.6239744199220425e+00 5.0555436738443751e+00 -1 0 0
20 20 1 0.0000000000000000e+00 2.6024948427437604e+01 2.8246324111985746e+00 5.0562242823790022e+00 0 0 0
109 109 1 0.0000000000000000e+00 2.4574954820284159e+01 1.3747744524923629e+00 7.0474580919324730e+00 0 0 0
110 110 1 0.0000000000000000e+00 2.7474806387334869e+01 1.3747744509718269e+00 7.0475606926584646e+00 0 0 0
119 119 1 0.0000000000000000e+00 2.4574934135849983e+01 4.2746467038469405e+00 7.0474285485768275e+00 0 0 0
120 120 1 0.0000000000000000e+00 2.7474806387054308e+01 4.2746260182841436e+00 7.0474580909131896e+00 0 0 0
21 21 1 0.0000000000000000e+00 2.8924758229381712e+01 5.7243148129359263e+00 5.0560549666048757e+00 -1 0 0