400
Atoms. Timestep: 0
1 -2.74582 -17.5612 -13.6154
1 -5.12496 18.1149 -8.69349
1 -7.21791 -1.23316 -4.52434
1 -6.11584 9.83572 -3.11219
1 -16.2227 -5.66651 -9.91864
1 -12.2553 10.6262 -3.99061
1 -8.20427 3.14577 -3.19026
1 -5.63124 12.9186 -12.9319
1 -2.91664 6.87282 -9.69793
1 -19.1825 13.0137 14.6954
1 -17.2581 11.2606 18.5952
1 -6.65969 13.5052 -1.50438
1 -2.27864 13.8085 -4.88076
1 -13.8196 -15.9058 -6.23506
1 17.577 5.20026 7.35689
1 -17.5716 8.81775 2.22405
1 -9.63573 11.0874 -14.8854
1 -12.0109 -19.6945 -14.3429
1 16.3135 10.5245 5.59195
1 15.8085 18.0686 18.3093
1 5.08872 -12.5071 -5.46603
1 -13.9355 -10.7575 -3.1224
1 5.88042 17.5467 -2.35784
1 -12.1296 9.63118 -8.47119
1 18.3287 -11.0574 -15.3637
1 3.31297 -11.6993 -13.951
1 11.037 -7.20905 -15.3521
1 -8.01473 -18.8466 -9.29894
1 13.4386 -11.3872 -10.7669
1 4.41944 -6.75874 -12.8328
1 -0.753974 -10.3718 -14.4466
1 -12.8096 6.96782 4.36866
1 -7.02174 18.4407 -12.7947
1 -5.71824 14.1358 -17.0343
1 14.0016 17.9529 5.13571
1 2.67532 -10.9965 -9.95188
1 0.9839 -9.18888 7.7384
1 -10.1922 -11.6489 -6.23369
1 -12.0656 2.09896 4.22765
1 -15.6593 2.72906 0.509527
1 -9.84556 7.40783 -1.44424
1 19.1669 -14.3021 -12.294
1 -19.9953 3.58293 -0.725005
1 12.5349 13.457 6.82953
1 -14.5902 -2.46086 13.9324
1 7.75098 19.6292 -6.08445
1 15.3626 -16.2862 -9.84727
1 13.5846 14.112 18.6992
1 -9.25401 4.24412 -16.13
1 -8.43958 -9.2505 -10.595
1 18.3311 18.5692 5.71794
1 4.77152 -16.6379 -5.67708
1 15.9457 6.26259 3.75743
1 -16.1767 11.8363 -3.59513
1 -17.5698 -11.5406 -11.262
1 -18.9607 7.86752 14.8509
1 -1.12428 -6.87211 -9.45917
1 18.6088 -6.53047 -8.18484
1 -9.85 -6.15454 -7.10088
1 5.39567 -13.9188 -9.55262
1 -14.1085 -7.58483 -5.90203
1 0.29343 -16.985 -16.2395
1 16.9384 14.6318 6.68755
1 -6.05556 6.19069 -12.8413
1 -9.15669 12.8856 -5.45477
1 -6.242 -14.5919 -10.7207
1 -17.5033 -3.61077 -14.953
1 0.985161 15.0363 -18.4462
1 -17.6771 -8.73266 -7.99654
1 -2.71221 -15.0981 -8.74519
1 -0.688681 6.09438 -14.7956
1 -4.95829 7.11332 0.434088
1 0.01922 -14.9395 11.5659
1 2.1322 -16.7275 -9.16747
1 6.83773 15.6892 -5.52744
1 2.4096 10.9004 0.460602
1 18.2808 -10.5055 -10.8547
1 -19.1575 -3.85121 -6.21134
1 17.4338 15.3722 14.3706
1 -3.09994 10.0332 -14.2086
1 11.3537 12.6553 11.1344
1 -13.3733 8.81456 0.564023
1 1.67664 14.0579 -13.6346
1 9.12746 17.7051 -14.5434
1 -17.4785 7.18239 -2.08357
1 4.80626 16.9331 -11.4457
1 7.13253 -4.23419 -9.273
1 -9.33061 7.0895 -5.6368
1 14.0665 13.0449 -0.226351
1 15.3443 12.0167 9.74965
1 -2.3413 17.2183 -12.4968
1 17.5028 7.97269 11.9715
1 -18.0339 15.3846 -18.0464
1 -4.7621 19.2587 -16.5506
1 -1.77741 12.6664 -11.3216
1 8.49613 -16.9196 -8.34919
1 -6.39104 -5.93234 0.738502
1 -5.77826 -10.8027 -6.99401
1 12.7371 7.85128 8.72821
1 6.86118 -5.50049 -1.76266
1 -0.456475 19.7069 -19.5629
1 4.43793 -18.5437 -13.1988
1 10.9676 17.4394 19.4404
1 19.4346 13.1911 3.95637
1 -8.65628 -4.65773 -2.75109
1 -14.6768 13.0506 0.675497
1 8.07474 19.5577 -17.8848
1 -18.1102 19.6305 -3.12683
1 9.37149 -2.2636 0.738926
1 14.7029 18.9145 10.3839
1 15.5997 19.1963 -13.4344
1 9.6702 6.36203 10.7585
1 0.0377378 -3.24837 -15.9288
1 18.8476 13.4497 19.5258
1 16.3475 -15.8175 -5.05382
1 -16.6717 -2.97495 -1.14856
1 -18.9519 -15.4345 -3.94683
1 6.09683 -9.11856 3.04705
1 10.0941 -11.5595 -8.3588
1 12.111 -13.0306 -4.2205
1 2.01339 -7.78487 -16.4605
1 1.2238 10.7397 -7.30691
1 -10.1649 7.1257 -13.1538
1 12.2512 -15.4707 -0.167647
1 3.64461 8.50257 -4.40224
1 -19.2096 5.07339 3.81163
1 -15.7266 -4.57281 19.8463
1 -10.9222 -14.6069 -11.0444
1 -12.576 5.25546 -3.63518
1 19.6776 15.1465 -14.1405
1 -4.60898 -15.2906 -4.17042
1 17.3302 9.26878 16.1026
1 -15.4265 0.0169727 10.1808
1 7.79299 -13.9762 -2.25908
1 -3.69716 -17.6332 -18.7389
1 -3.31799 -11.8009 -11.398
1 -3.80012 -12.7088 -15.1364
1 9.21682 -17.6152 -14.1638
1 -19.3994 -7.304 -12.7839
1 -9.50982 3 1.13548
1 -8.67841 -15.4099 -7.14413
1 1.64814 5.67415 10.544
1 -19.1532 15.5591 0.809986
1 -16.3047 -10.9506 18.5146
1 -5.51704 2.40579 -14.7923
1 14.3311 -8.49425 -0.41761
1 -11.8398 7.33059 -18.4135
1 -16.6247 6.11494 6.91865
1 -12.7282 16.8057 0.451139
1 19.8373 -2.12251 17.0427
1 12.5228 1.55041 -0.424492
1 15.0101 -14.553 -14.3826
1 12.36 -17.8404 -7.49168
1 -4.78187 9.62131 18.4845
1 -9.73428 -4.53098 3.64128
1 19.7465 -1.52002 -18.6069
1 11.3951 -5.12392 -10.0805
1 -10.6878 12.8642 -0.571632
1 -12.475 -2.49873 -18.8784
1 9.04867 11.7762 14.8542
1 -8.98734 -19.2955 -4.07949
1 3.3669 -6.05658 -8.43106
1 16.6298 -10.259 -6.29117
1 -0.0681543 -15.6312 16.0128
1 -14.9966 -16.4442 -0.420372
1 -8.49759 -1.11568 -14.0147
1 -4.16959 -13.1687 14.4719
1 3.65608 -18.1613 15.0846
1 4.904 -6.67645 -19.5773
1 -11.8975 -19.6682 -1.40405
1 -6.18695 -15.71 17.3053
1 4.91834 -13.6793 12.0301
1 -4.85972 0.818503 14.5435
1 18.285 5.81887 -4.86516
1 -3.66512 -6.63416 -6.1287
1 -2.7726 9.98547 -6.84977
1 16.36 15.4779 -18.1381
1 -14.8077 -9.04557 -12.6666
1 -8.69879 -15.0195 -3.07367
1 -14.3696 -12.2898 -7.97109
1 3.50695 -19.1305 -18.926
1 -7.42152 7.87967 -16.5196
1 4.19065 -13.0233 7.71885
1 11.7439 -8.81548 4.19004
1 -16.2215 18.8981 0.576458
1 6.75138 -9.12709 -15.9163
1 12.9994 -8.23004 -4.72847
1 -2.45458 14.0946 19.6031
1 -17.5101 -12.5806 0.559531
1 19.9196 -13.3445 -7.8448
1 7.19491 14.8618 19.89
1 -19.7811 -5.65804 19.0108
1 -1.50569 -10.7834 -6.89513
1 -8.12215 13.6206 3.04627
1 -14.4396 16.8987 -3.65809
1 8.50596 11.4134 -17.7304
1 -4.95836 4.9319 -5.42217
1 -8.59946 -10.7834 1.68034
1 9.9858 -12.9581 -13.2858
1 6.49674 -9.99776 -11.0133
1 0.321387 -5.38898 -19.8867
1 17.0815 0.248558 -15.5632
1 -19.8592 -17.5047 1.0469
1 -19.6567 16.8627 17.5651
1 -6.53023 16.1004 5.9442
1 -7.42415 4.25978 7.87186
1 0.94765 16.896 -10.1712
1 7.50268 10.1879 10.3205
1 0.47245 4.23698 -3.94996
1 8.51449 -5.71376 4.74364
1 0.734528 -15.2726 -5.13651
1 3.80307 13.0769 -9.39642
1 0.648357 10.3725 -15.7982
1 -4.7154 19.918 -4.52571
1 7.54354 2.5881 10.8101
1 -10.933 -15.5654 14.6613
1 -17.7372 -8.39299 -17.8441
1 11.5524 15.758 -6.94618
1 18.8168 -5.6137 -16.1847
1 15.8772 -4.60894 17.9684
1 13.5869 16.4261 -2.85614
1 -17.7048 3.41186 -4.62433
1 -19.9063 -18.4672 -7.67086
1 -6.44852 -9.85746 19.1369
1 7.29092 -10.1616 19.1873
1 -7.66121 -9.31 -2.38649
1 -18.7927 -9.32583 -2.79104
1 -18.0527 1.57899 5.6997
1 9.77835 14.4531 -1.04527
1 12.8436 -3.51336 -2.71015
1 -5.03184 -14.1528 0.49308
1 9.18721 -9.59486 -2.78451
1 -11.852 -13.0714 -18.1194
1 15.326 -8.06919 -14.9541
1 -16.5378 -0.514406 -17.2796
1 -0.86384 9.44517 -2.43553
1 11.7174 9.39494 -6.9514
1 -2.70903 6.17904 16.0371
1 -17.9876 -12.4864 -16.6006
1 17.5793 4.10264 18.2789
1 -3.00892 0.737113 -3.41723
1 -19.5987 19.3355 -18.5714
1 -2.30887 1.97669 -10.0858
1 -3.00638 18.2295 8.20725
1 4.28221 10.4999 13.0358
1 3.09572 -0.0309869 -4.10602
1 3.64555 4.58274 6.05003
1 2.67131 8.05642 3.52754
1 6.5779 11.9288 1.00965
1 -8.73525 -19.6798 2.65425
1 5.71639 17.4405 17.6558
1 -10.1761 10.2407 5.8466
1 -4.33932 -3.87215 -11.9202
1 17.8384 -14.3465 13.6527
1 4.05894 8.24588 8.40784
1 -17.1149 -16.9517 10.8872
1 8.87162 14.583 -10.879
1 -8.63776 -6.39189 -13.9063
1 -9.06751 8.07392 10.1926
1 16.6724 -7.20338 9.12353
1 15.5781 19.4816 -7.53103
1 -7.81174 0.227185 3.89634
1 16.956 15.6435 1.64395
1 11.8712 2.83845 8.62951
1 -8.68682 -15.0036 1.55722
1 13.0186 -18.7374 1.7268
1 18.4729 0.653796 -3.25478
1 14.5259 2.02507 -5.18092
1 -15.3157 10.513 5.40889
1 6.65897 -18.0907 11.8968
1 13.0214 -5.57976 7.12797
1 -3.6002 12.2804 3.66042
1 11.5131 -17.0925 -18.1685
1 13.4828 -12.9493 8.16581
1 16.4191 -5.99711 -3.90208
1 17.216 -10.9302 7.16272
1 7.9668 -1.25229 18.5809
1 -12.9068 0.442075 -14.2983
1 17.3778 -8.56267 19.7374
1 -12.7894 19.8128 4.63918
1 -17.494 7.23334 -6.75669
1 -15.7099 15.2352 -12.3168
1 -6.70921 16.4573 -4.72197
1 0.406203 -11.0919 2.65175
1 -1.07125 10.6944 15.8224
1 -10.152 -15.1632 18.596
1 -12.7211 15.1942 5.51034
1 9.80532 17.3023 7.69737
1 3.66839 17.9206 -16.0013
1 12.6969 18.1623 14.8152
1 -10.0147 0.896754 16.0783
1 17.3746 8.80976 -7.89627
1 -5.77592 -10.5675 5.02754
1 10.748 -0.102537 -4.08701
1 14.9683 -11.6309 12.1593
1 8.421 -6.44591 -5.5894
1 17.2434 1.12685 9.78588
1 -3.93097 2.52744 2.85019
1 -13.6563 -6.6502 8.50957
1 19.7232 -14.8854 7.98049
1 11.2421 -1.25485 -16.7211
1 12.8591 -1.17954 -11.5264
1 -14.5291 -6.68959 -1.25902
1 7.00132 -18.5613 -0.0127275
1 -5.58092 -13.8648 -18.4432
1 -6.56737 13.4988 13.7624
1 13.4341 6.47641 -3.26542
1 7.46057 2.34706 6.52088
1 -12.1961 -12.8223 0.330674
1 7.69934 9.08138 5.99366
1 -19.6599 5.65303 11.2186
1 10.7938 1.82916 -8.87486
1 15.0155 -18.4108 -2.10223
1 4.53846 -19.8859 -8.66857
1 14.8793 -16.2392 10.6796
1 -12.1985 -18.7674 -9.05472
1 16.049 15.1933 -12.4218
1 -0.946156 -19.4146 -7.91375
1 13.0961 -17.3736 13.9809
1 1.42579 -12.5022 -19.655
1 19.7331 12.5487 -2.42937
1 -3.55388 -1.20192 1.05993
1 -9.68726 -13.2355 6.11381
1 1.74723 -4.64255 5.97059
1 1.78788 6.33422 -9.10378
1 -10.9645 -7.39803 1.24311
1 4.03278 -2.98087 -17.9965
1 0.958748 -2.15447 -0.442111
1 -6.56955 5.08582 16.3609
1 -17.1511 -7.03155 15.7669
1 5.722 5.67783 13.9164
1 -16.8823 -18.4417 5.99714
1 -13.8847 4.45636 -8.51052
1 -11.1011 -11.2778 -14.3179
1 8.27082 -4.34314 -17.4554
1 -5.74892 -5.72036 5.98794
1 -1.11088 7.83228 -18.5351
1 -3.17753 -2.41499 11.3873
1 5.23967 -4.86957 8.32062
1 9.31466 -12.2148 13.2884
1 14.8794 -17.7796 17.5661
1 4.08159 -0.715971 6.04127
1 12.8519 -7.19609 11.8014
1 3.8811 -2.88069 17.5812
1 5.969 -8.40461 15.2634
1 -14.7901 -15.5456 15.7364
1 -15.3253 18.4176 8.68093
1 -4.00808 -7.02895 -15.4543
1 2.77463 16.9565 -5.606
1 1.74076 -11.0041 15.2789
1 -15.4173 12.7872 -8.44015
1 -1.15087 3.37376 6.64006
1 17.9475 10.2486 1.04412
1 -14.1531 3.08354 -18.381
1 -19.4875 17.9142 -10.3764
1 15.0734 11.4101 -3.82767
1 15.0444 -10.9618 16.8893
1 -7.84216 12.4947 8.44301
1 16.5264 5.82148 -0.440057
1 -8.11715 3.04699 12.9138
1 0.990577 2.62637 -7.77456
1 -2.95889 -8.64574 1.79854
1 18.2967 17.6067 -5.05883
1 -3.23722 -7.14513 10.6543
1 -1.14736 -17.8315 -0.929275
1 -19.2602 -10.4789 13.9295
1 2.74268 2.27439 1.4644
1 7.53068 7.05062 -6.2522
1 -18.1281 -19.4042 -14.5815
1 9.3584 -1.17245 4.86563
1 5.60951 -9.47757 7.20554
1 -13.7249 -10.0412 15.0768
1 -18.2291 16.2741 10.7109
1 -2.749 7.96743 3.68392
1 -17.1084 17.3567 4.59469
1 1.36836 2.32169 -15.7722
1 16.6501 -13.202 1.91508
1 -19.8843 -18.6247 16.2901
1 3.72892 -5.76735 12.508
1 -5.90018 13.1467 -8.56111
1 8.88858 10.0095 -2.63004
1 5.87706 3.54625 -4.93507
1 -7.33364 -8.24084 13.6494
1 -15.9819 -0.187087 -10.8859
1 -17.2207 2.40576 15.1474
1 4.15057 10.3488 -17.442
1 -8.56612 17.3383 -18.0276
1 -19.1702 -11.3477 9.47329
1 17.589 -16.7562 -18.646
1 -15.496 7.04855 -14.5584
1 -10.5146 -12.751 10.3052
1 -14.4534 11.2222 -13.5071
1 19.9935 -1.94285 0.936335
1 -10.5878 15.7286 13.8242
1 1.47237 15.647 11.3479
1 -1.40313 -10.6668 12.768
1 -10.0116 -2.03693 -10.2192
1 -14.3049 -15.9109 -12.2964
1 5.01761 12.8838 16.2723
1 -6.62698 -12.0082 9.18887
400
Atoms. Timestep: 1000
1 -2.61061 -17.5763 -13.46
1 -5.13749 18.0726 -8.79367
1 -7.01932 -1.23672 -4.38613
1 -6.02322 9.75442 -3.31446
1 -16.4006 -5.62713 -9.87171
1 -12.1878 10.5654 -4.08763
1 -8.11258 3.19529 -3.21699
1 -5.74511 12.8075 -12.8308
1 -2.94881 6.95735 -9.48473
1 -19.2322 12.9197 14.6034
1 -17.4431 11.661 18.5523
1 -6.7692 13.5484 -1.68292
1 -2.40798 14.1132 -4.80282
1 -13.607 -16.2862 -6.17868
1 17.4848 4.76136 7.34467
1 -17.4762 8.80617 2.00955
1 -9.67633 11.0769 -14.8939
1 -12.1133 -19.5086 -14.4057
1 16.5028 10.5377 5.55768
1 15.8978 18.141 18.5709
1 5.2179 -12.3993 -5.55639
1 -13.714 -10.5431 -3.24405
1 6.01835 17.3743 -2.38601
1 -12.29 9.31283 -8.63635
1 18.5763 -11.1594 -15.4289
1 3.27445 -11.6526 -13.8974
1 11.1248 -7.37341 -15.5234
1 -8.14265 -18.834 -9.38682
1 13.4797 -11.8348 -10.7126
1 4.63533 -6.61609 -13.1544
1 -0.644049 -10.3624 -14.4793
1 -12.77 7.08727 4.48958
1 -6.82503 18.3179 -12.8691
1 -5.7978 14.1454 -17.0281
1 13.8248 17.7702 5.1869
1 2.2822 -10.8237 -9.77915
1 0.932727 -8.91089 7.7292
1 -9.95966 -11.8103 -6.1686
1 -12.2413 1.93818 4.20798
1 -15.6063 2.64056 0.664588
1 -9.66065 7.32375 -1.42412
1 19.1395 -14.1587 -12.2734
1 -19.9295 3.65206 -0.777211
1 12.6754 13.4032 6.64229
1 -14.5986 -2.56467 13.7913
1 7.41701 19.4247 -5.81471
1 15.6352 -16.2035 -10.0143
1 13.6394 14.165 18.8384
1 -9.44533 3.9543 -16.2066
1 -8.39312 -9.27145 -10.2871
1 18.6194 18.6626 5.69763
1 4.5788 -16.2789 -5.79365
1 15.8742 6.28363 3.73595
1 -15.9291 11.7401 -3.6668
1 -17.665 -11.4333 -11.1187
1 -18.7248 8.09143 14.9839
1 -1.07895 -7.01778 -9.44232
1 18.4433 -6.36532 -8.21339
1 -9.83876 -6.07066 -7.31902
1 5.27037 -13.9652 -9.6641
1 -14.0737 -7.69517 -6.16467
1 0.734383 -16.8591 -16.0997
1 16.8015 14.54 6.66967
1 -6.00644 6.00489 -12.8963
1 -8.9816 12.9148 -5.69967
1 -6.19826 -14.62 -10.6485
1 -17.452 -3.73643 -14.8785
1 0.880622 14.9595 -18.5894
1 -17.8145 -8.45099 -7.76775
1 -2.60121 -15.1603 -8.76839
1 -0.719552 6.18888 -14.8617
1 -5.07982 6.96079 0.269697
1 0.0646627 -14.9348 11.7081
1 2.20518 -16.8077 -9.33728
1 6.74758 15.4776 -5.59372
1 2.73358 10.793 0.461295
1 18.365 -10.4649 -10.7446
1 -19.7124 -3.94313 -6.23385
1 17.4796 15.6505 14.3343
1 -3.04313 9.94198 -14.2875
1 11.1662 12.5759 10.8846
1 -13.2632 8.83374 0.547021
1 1.27933 13.8735 -13.5341
1 9.11403 17.6438 -14.4295
1 -17.4029 7.2142 -1.97822
1 5.02827 16.8443 -11.4336
1 7.15285 -4.47324 -9.2348
1 -9.04988 7.03553 -5.76764
1 13.9908 12.8996 -0.221231
1 15.3418 12.1417 9.64502
1 -2.4455 17.5061 -12.461
1 17.6004 7.85876 11.8291
1 -17.825 15.572 -18.0306
1 -4.74553 19.232 -16.5871
1 -1.76656 12.2813 -11.2034
1 8.36241 -16.7619 -8.28294
1 -6.26788 -5.86569 0.75427
1 -5.8358 -10.7961 -7.09545
1 12.7337 7.67599 8.80761
1 7.11885 -5.43084 -1.92829
1 -0.378406 19.7981 -19.6182
1 4.46105 -18.3968 -13.2277
1 10.5287 17.4182 19.4552
1 19.5511 13.3527 3.88658
1 -8.51028 -4.7345 -2.78658
1 -14.7001 13.0333 0.801584
1 7.82933 19.4497 -17.7747
1 -18.0722 19.5998 -3.17985
1 9.48496 -2.3319 0.794982
1 14.8775 18.9722 10.3143
1 15.6794 19.1983 -13.4257
1 9.56048 6.18698 11.1314
1 -0.0612656 -3.5851 -15.9801
1 18.6083 13.5141 19.8731
1 16.346 -15.7556 -5.23785
1 -16.8865 -3.13455 -1.23267
1 -18.8564 -15.3422 -4.23092
1 6.08807 -9.25115 3.12518
1 10.0525 -11.405 -8.26514
1 12.0065 -12.905 -4.29153
1 2.03771 -7.98075 -16.5018
1 1.12016 10.7781 -7.21615
1 -10.218 6.83638 -13.0375
1 11.8736 -15.2311 -0.00832242
1 3.37203 8.46917 -4.53748
1 -19.2116 5.24098 3.71126
1 -15.6342 -4.42965 19.7876
1 -10.9322 -14.4867 -10.7829
1 -12.5955 5.29628 -3.75165
1 19.6146 14.8505 -14.1687
1 -4.70219 -15.2969 -4.19623
1 17.4878 9.41415 15.8702
1 -15.3495 0.342464 10.1871
1 7.62863 -13.9555 -2.22476
1 -3.84696 -17.577 -18.8511
1 -3.22393 -11.8151 -11.2551
1 -3.75659 -12.505 -15.2998
1 9.43779 -17.8013 -14.2471
1 -19.5622 -7.55275 -12.8043
1 -9.4345 3.28157 1.10196
1 -8.66842 -15.3586 -7.08367
1 1.57173 5.64798 10.3937
1 -18.7931 15.6764 0.722412
1 -16.3923 -10.9303 18.2487
1 -5.49367 2.43967 -14.729
1 14.5439 -8.58669 -0.269402
1 -11.754 7.1602 -18.2907
1 -16.4929 6.18435 6.80983
1 -12.6933 16.8368 0.491807
1 19.7814 -2.33772 16.9856
1 12.5305 1.5015 -0.364196
1 15.1535 -14.5795 -14.4781
1 12.359 -17.4811 -7.65863
1 -4.77235 9.82668 18.6966
1 -9.57902 -4.69531 3.6408
1 19.8696 -1.29397 -18.6232
1 11.5643 -5.10303 -9.79107
1 -10.7091 12.8747 -0.601876
1 -12.4583 -2.23014 -18.6219
1 9.12056 11.8898 15.0776
1 -8.83398 -19.3067 -3.94096
1 3.36845 -5.87699 -8.26309
1 16.6889 -10.3424 -6.37286
1 -0.00381048 -15.624 15.988
1 -14.8622 -16.5373 -0.258401
1 -8.52767 -1.1147 -13.8731
1 -4.32286 -12.9143 14.4763
1 3.65741 -18.4488 14.9327
1 4.93604 -6.70295 -19.5113
1 -12.137 -19.7143 -1.41634
1 -6.31425 -15.6058 17.2891
1 5.04625 -13.76 12.2618
1 -5.26897 0.822152 14.238
1 18.1398 5.95214 -4.70491
1 -3.62262 -6.45665 -6.09713
1 -2.9177 10.0449 -6.69223
1 16.3177 15.6431 -17.9254
1 -14.8134 -8.87715 -12.5723
1 -8.94072 -15.0124 -2.96843
1 -14.3418 -12.3268 -8.07222
1 3.21276 -19.1792 -18.922
1 -7.43423 7.79979 -16.4287
1 4.07307 -13.143 7.59265
1 11.6443 -8.82681 3.93812
1 -16.3235 19.1384 0.744822
1 6.47897 -9.07489 -15.8762
1 12.9721 -8.1576 -4.76736
1 -2.49412 14.3652 19.6381
1 -17.459 -12.6173 0.688682
1 19.9729 -13.4236 -7.76572
1 7.45163 14.8243 20.0588
1 -19.7557 -5.54776 18.9277
1 -1.39595 -10.7727 -6.7851
1 -7.97597 13.7389 3.03526
1 -14.3045 16.7135 -3.70955
1 8.30929 11.6098 -17.6777
1 -4.70532 4.96367 -5.31846
1 -8.48535 -10.7722 1.73319
1 10.0388 -13.111 -13.1547
1 6.40286 -9.75132 -10.8835
1 0.566518 -5.18927 -19.9329
1 17.1063 0.219753 -15.1589
1 -19.8489 -17.4312 1.04274
1 -19.471 16.7215 17.7012
1 -6.37246 15.9916 5.80876
1 -7.57985 4.11686 7.99788
1 1.08793 16.9777 -10.1343
1 7.64311 9.98023 10.7693
1 0.531479 4.23162 -4.2585
1 8.68535 -5.79477 4.79902
1 0.470597 -15.2462 -5.1799
1 3.88701 13.0557 -9.29893
1 0.653582 10.4567 -15.7689
1 -4.61905 20.0042 -4.45163
1 7.37992 2.48681 10.7688
1 -11.0044 -15.6324 14.5367
1 -17.6713 -8.27469 -18.0557
1 11.6284 16.1255 -6.98099
1 18.9383 -5.63396 -16.1206
1 15.7985 -4.31246 17.8621
1 13.8265 16.4004 -2.79659
1 -17.6529 3.31646 -4.73323
1 -19.9131 -18.4854 -7.60066
1 -6.57389 -9.67117 19.2313
1 7.34043 -9.97162 19.2977
1 -7.72895 -9.36363 -2.35776
1 -18.6926 -9.28994 -3.02921
1 -18.1401 1.56839 5.52535
1 9.86347 14.6145 -1.04537
1 12.9757 -3.54889 -2.98216
1 -5.02267 -14.034 0.480257
1 9.23758 -9.72724 -2.64417
1 -11.9428 -13.3237 -18.0442
1 15.2652 -7.89376 -15.0264
1 -16.3847 -0.823079 -17.3443
1 -1.02743 9.64622 -2.32425
1 11.8029 9.64559 -6.94637
1 -2.76251 6.38184 16.1214
1 -17.9686 -12.2148 -16.72
1 17.4309 3.78755 18.4427
1 -3.00988 0.568451 -3.25882
1 -19.7294 19.3122 -18.383
1 -2.30559 2.02803 -10.005
1 -3.17156 18.2536 8.17105
1 4.17657 10.6018 12.9098
1 3.26896 -0.187323 -3.96461
1 3.77766 4.4641 6.26856
1 2.8691 8.05593 3.60794
1 6.7846 11.8999 1.07092
1 -8.88811 -19.814 2.55986
1 5.67151 17.5984 17.6839
1 -9.96562 10.4004 5.74719
1 -4.46957 -3.86497 -11.9093
1 17.9908 -14.3422 13.4638
1 4.1847 8.24496 8.38249
1 -17.0384 -16.8895 10.9145
1 9.12496 14.5891 -10.8827
1 -8.60866 -6.50896 -13.9049
1 -9.01803 7.85139 10.0496
1 16.532 -7.32413 9.2902
1 15.4687 19.2668 -7.49544
1 -7.65172 0.300549 4.12043
1 17.1345 15.5748 1.58366
1 11.8994 2.95597 8.3254
1 -8.83875 -14.9691 1.82205
1 13.0951 -18.5456 1.92159
1 18.5367 0.669678 -3.12178
1 14.4316 1.9163 -5.06468
1 -15.4722 10.6225 5.11654
1 6.54707 -18.2185 12.1477
1 12.9065 -5.56896 6.93234
1 -3.33854 12.3117 3.66215
1 11.4447 -17.1382 -18.0278
1 13.4179 -13.0385 8.125
1 16.3106 -5.9446 -3.95269
1 17.188 -11.0919 7.08992
1 8.12805 -1.57771 18.4833
1 -12.9876 0.425167 -14.6274
1 17.4031 -8.31472 19.6041
1 -13.0019 19.6968 4.65092
1 -17.4243 7.24877 -6.64807
1 -15.6983 15.1628 -12.1985
1 -6.59347 16.472 -4.56597
1 0.424082 -11.2828 2.58243
1 -1.16021 10.9048 15.6757
1 -10.1695 -15.4005 18.6438
1 -12.62 15.1116 5.47923
1 9.78047 17.4712 7.8707
1 3.78973 17.8466 -16.2858
1 12.7596 18.2351 14.8462
1 -10.0566 1.06362 16.0403
1 17.4221 8.75744 -7.78396
1 -5.74457 -10.7633 5.09306
1 10.9651 -0.162008 -3.68636
1 15.1344 -11.4913 12.1528
1 8.56436 -6.4385 -5.47224
1 17.2875 0.897868 9.67464
1 -3.8839 2.55237 3.06188
1 -14.0684 -6.41714 8.62988
1 19.5982 -15.1779 7.91464
1 11.113 -1.41493 -16.6086
1 12.9677 -1.24433 -11.6502
1 -14.6628 -6.88587 -1.41111
1 7.18647 -18.3641 -0.162416
1 -5.79832 -14.0275 -18.6169
1 -6.71332 13.467 13.7638
1 13.3539 6.33968 -3.11998
1 7.35127 2.43331 6.36301
1 -12.0143 -12.6076 0.237097
1 7.73478 9.28329 5.94488
1 -19.575 5.70664 11.2616
1 10.829 2.05882 -8.89179
1 14.8801 -18.4506 -2.00372
1 4.38918 -19.9412 -8.78717
1 14.9855 -16.435 10.7098
1 -12.2397 -18.9476 -8.90851
1 16.2812 15.135 -12.4278
1 -0.944253 -19.2625 -7.80954
1 13.0215 -17.4278 14.1381
1 1.34622 -12.6788 -19.7176
1 19.6591 12.7614 -2.5801
1 -3.72597 -1.34559 1.1402
1 -9.55185 -13.0013 6.13616
1 1.77249 -4.43741 5.95329
1 1.86326 6.1302 -8.95162
1 -10.8745 -7.48841 1.0282
1 3.96632 -2.80621 -18.0879
1 0.91339 -2.32185 -0.475614
1 -6.65342 5.07643 16.3816
1 -17.1058 -7.08401 15.7043
1 5.59544 5.58293 13.9323
1 -16.924 -18.3789 5.85384
1 -13.7667 4.50338 -8.54771
1 -11.2026 -11.0581 -14.1968
1 8.51582 -4.48181 -17.6687
1 -5.9145 -5.71221 6.1215
1 -1.40036 8.01578 -18.283
1 -3.11931 -2.64686 11.2697
1 5.39718 -5.14668 8.18107
1 9.05187 -12.1889 13.4125
1 14.8697 -18.0527 17.6405
1 3.905 -0.774881 6.21662
1 12.8161 -7.03297 11.7427
1 4.05217 -2.84754 17.5707
1 5.93524 -8.41955 15.3264
1 -14.9192 -15.069 15.7839
1 -15.4077 18.5201 8.51869
1 -4.08261 -7.16152 -15.4664
1 2.99165 17.1504 -5.62682
1 1.75339 -11.0894 15.3838
1 -15.2245 12.8253 -8.24542
1 -1.15784 3.38086 6.72491
1 17.7837 10.4815 0.842728
1 -14.2399 3.03165 -18.5596
1 -19.2124 18.0692 -10.4414
1 15.2077 11.4509 -3.94965
1 14.9339 -11.0326 16.8966
1 -7.79241 12.3533 8.61122
1 16.4878 5.83025 -0.393937
1 -8.26213 3.00491 12.726
1 1.15286 2.29748 -7.7262
1 -3.23841 -8.72164 1.84507
1 18.3271 17.4242 -4.98421
1 -3.33602 -7.00992 10.6219
1 -1.13005 -17.7008 -0.89073
1 -19.4934 -10.4184 13.8959
1 2.8921 2.24854 1.29346
1 7.50239 7.11468 -6.30579
1 -18.2233 -19.4073 -14.4512
1 9.60457 -1.02884 4.89254
1 5.6298 -9.40839 7.1903
1 -13.7931 -9.98277 15.049
1 -18.3497 16.2743 10.274
1 -3.09662 7.92938 3.93399
1 -17.4012 17.3119 4.62643
1 1.52326 2.23278 -15.7972
1 16.4362 -13.1689 1.89253
1 -19.7845 -18.732 16.1856
1 3.44259 -5.92287 12.1523
1 -6.04807 13.222 -8.67714
1 8.8708 9.866 -2.52836
1 5.91716 3.53466 -4.93341
1 -7.43544 -8.47005 13.5511
1 -16.1858 -0.184081 -10.8716
1 -17.4895 2.28937 15.2077
1 3.99074 10.4225 -17.7435
1 -8.24101 17.3291 -18.1735
1 -18.9875 -11.3625 9.39156
1 17.4981 -16.877 -18.588
1 -15.3355 6.9876 -14.4825
1 -10.6672 -12.8159 10.3275
1 -14.6244 11.3649 -13.7677
1 20.0289 -1.84657 0.708219
1 -10.6271 15.7891 14.1054
1 1.39707 15.449 11.3204
1 -1.41917 -10.6795 12.6153
1 -10.09 -1.95276 -10.3767
1 -14.4179 -15.9532 -12.3119
1 5.26267 12.8189 16.241
1 -6.4755 -12.0513 9.52978
400
Atoms. Timestep: 2000
1 -2.53307 -17.7278 -13.5419
1 -5.0931 18.1019 -8.8993
1 -7.17454 -1.12454 -4.71244
1 -5.899 9.82949 -3.03681
1 -16.3181 -5.68364 -10.1266
1 -12.1838 10.6571 -3.89215
1 -8.20095 3.68322 -3.37624
1 -5.77813 12.6984 -12.8668
1 -2.9922 6.85427 -9.37634
1 -19.0851 12.797 14.6111
1 -17.173 11.8858 18.5731
1 -6.72745 13.5796 -1.43531
1 -2.56344 14.2684 -4.92151
1 -13.4115 -16.1051 -6.2434
1 17.5343 4.72701 7.18394
1 -17.3113 8.93563 2.0468
1 -9.66308 11.0868 -14.6514
1 -11.9188 -19.304 -14.3182
1 16.4306 10.4828 5.51122
1 15.9005 18.0746 18.3523
1 5.2005 -12.5571 -5.51303
1 -13.7613 -10.6553 -3.29996
1 5.94557 17.5446 -2.34757
1 -12.5541 9.26078 -8.76533
1 18.6709 -10.9892 -15.2823
1 3.02999 -11.5954 -13.7584
1 11.09 -7.16169 -15.5161
1 -8.09683 -18.8872 -9.25936
1 13.2445 -11.5945 -10.9391
1 4.78419 -6.74918 -13.0322
1 -0.607207 -10.2683 -14.6109
1 -12.7167 7.30589 4.31837
1 -6.95154 18.333 -12.7232
1 -5.64477 14.123 -17.0873
1 13.8468 17.8546 5.20927
1 2.15904 -10.7051 -9.65275
1 1.05309 -8.99342 7.69426
1 -10.0185 -11.7907 -6.041
1 -12.3497 2.06285 4.19471
1 -15.6265 2.10696 0.844994
1 -9.86793 7.29534 -1.39981
1 19.1872 -14.0147 -12.2653
1 -19.886 3.51051 -0.727344
1 12.7608 13.6714 6.93617
1 -14.4668 -2.54985 13.6606
1 7.56013 19.4937 -5.65854
1 15.9299 -16.0945 -9.87977
1 13.3415 14.3738 18.8069
1 -9.24705 4.10046 -16.2404
1 -8.33724 -9.33748 -10.2767
1 18.5889 18.7199 5.8844
1 4.44229 -16.401 -5.90403
1 15.9143 6.35022 3.82102
1 -15.9783 11.7608 -3.55246
1 -17.8897 -11.4932 -11.0153
1 -18.7932 8.07342 15.087
1 -0.924572 -6.99651 -9.31954
1 18.4802 -6.50581 -8.10961
1 -9.77324 -6.47466 -7.39642
1 5.23416 -14.0465 -9.47781
1 -13.9764 -7.59406 -5.90073
1 0.560959 -17.1258 -15.981
1 16.5561 14.715 6.49335
1 -6.10785 5.96707 -12.873
1 -8.87592 12.6587 -5.50749
1 -5.97291 -14.5486 -10.8084
1 -17.5092 -3.93552 -14.635
1 0.875419 14.7872 -18.3756
1 -17.7468 -8.32776 -7.70294
1 -2.50154 -15.0268 -8.86521
1 -0.625641 6.36786 -14.9224
1 -5.4284 7.0558 0.438151
1 -0.0509584 -14.6503 11.7989
1 2.12891 -17.022 -9.44989
1 6.60535 15.2978 -5.58604
1 2.44916 10.7433 0.375453
1 18.3624 -10.5172 -10.8133
1 -19.7953 -3.89854 -6.28293
1 17.5852 15.611 14.2671
1 -3.27825 10.0031 -14.3789
1 11.1852 12.5072 10.8976
1 -13.1694 8.59736 0.564816
1 1.0986 13.9536 -13.6874
1 8.81419 17.7197 -14.3578
1 -17.4613 6.99245 -2.06943
1 5.22724 16.8508 -11.4833
1 7.29442 -4.79041 -9.42614
1 -9.21333 6.81252 -5.90402
1 14.0207 12.8354 -0.167101
1 15.7106 12.0389 9.75137
1 -2.46546 17.6659 -12.3367
1 17.5575 7.83727 11.8203
1 -17.9715 15.4461 -18.0983
1 -4.89534 19.3376 -16.4787
1 -1.65208 12.1702 -11.1959
1 8.49642 -16.9931 -8.43436
1 -6.13286 -5.97846 0.797338
1 -5.65085 -11.0541 -7.128
1 12.7841 7.76881 8.94413
1 7.09482 -5.52446 -1.76868
1 -0.335482 19.9263 -19.5942
1 4.42161 -18.6034 -13.4442
1 10.6114 17.6114 19.0995
1 19.3357 13.2749 3.85043
1 -8.46587 -4.93268 -2.86104
1 -14.7664 12.9307 0.643005
1 7.60821 19.5325 -17.7534
1 -17.9518 19.8995 -3.27136
1 9.30309 -2.05601 0.732911
1 14.6123 19.0326 10.3603
1 15.4005 19.2081 -13.5747
1 9.47122 6.20541 11.248
1 -0.0339223 -3.5877 -16.0072
1 18.5321 13.5656 19.9669
1 16.2126 -15.8042 -5.32886
1 -16.8769 -3.38749 -1.39687
1 -18.8561 -15.3643 -4.2288
1 5.99096 -8.93852 2.98927
1 9.81575 -11.4673 -8.07024
1 12.0403 -12.717 -4.46982
1 2.00677 -7.72648 -16.3597
1 0.951121 11.196 -7.20108
1 -10.4721 6.77375 -13.0157
1 11.8855 -15.2896 0.115307
1 3.39071 8.49691 -4.54767
1 -19.4256 5.28133 3.80628
1 -15.484 -4.47508 19.8188
1 -10.8554 -14.4437 -10.7815
1 -12.4735 5.44738 -3.78895
1 19.7048 14.5134 -14.3699
1 -4.38567 -15.277 -4.02878
1 17.8276 9.26066 15.7989
1 -15.3746 0.220423 10.2023
1 7.62367 -13.7798 -2.34761
1 -3.79316 -17.5589 -18.7949
1 -3.00169 -11.6831 -11.4226
1 -3.90512 -12.3776 -15.3232
1 9.63091 -17.7705 -14.306
1 -19.5427 -7.41396 -13.0314
1 -9.64949 3.36668 1.07379
1 -8.50595 -15.3519 -6.95901
1 1.56945 5.67281 10.2611
1 -19.0238 15.551 0.528669
1 -16.2963 -10.9504 18.2525
1 -5.20425 2.3716 -14.6607
1 14.5612 -8.83684 -0.352837
1 -11.5806 7.00077 -18.4366
1 -16.3186 6.16692 6.7491
1 -12.5702 16.7265 0.464467
1 19.91 -2.32907 16.8404
1 12.4968 1.40831 -0.348981
1 15.1345 -14.6512 -14.4474
1 12.1093 -17.6456 -7.576
1 -4.51897 9.9017 18.7378
1 -9.65229 -4.75323 3.79507
1 19.7458 -1.43069 -18.6266
1 11.6912 -5.43004 -9.68254
1 -10.7168 12.6944 -0.635241
1 -12.4535 -2.26471 -18.5837
1 9.10036 11.7853 14.9313
1 -8.89792 -19.6972 -3.67404
1 3.36604 -5.93325 -8.21814
1 16.6566 -10.2169 -6.38946
1 -0.0774251 -15.7748 15.9031
1 -14.9463 -16.3652 -0.203189
1 -8.33285 -1.18224 -13.8071
1 -4.26383 -13.024 14.4931
1 3.57315 -18.4213 15.2036
1 4.93578 -6.90358 -19.5835
1 -12.1648 -19.679 -1.22908
1 -6.16958 -15.7495 17.191
1 5.00762 -14.0191 12.2921
1 -4.98675 0.675211 14.2914
1 18.2502 5.58273 -4.54263
1 -3.8657 -6.47419 -6.12173
1 -2.84952 10.0707 -6.80167
1 16.2402 15.4204 -18.054
1 -14.8636 -8.95927 -12.5735
1 -9.0118 -14.9452 -3.13818
1 -14.3137 -12.2213 -8.09732
1 3.26051 -19.4098 -19.1458
1 -7.5449 7.68648 -16.3002
1 3.98817 -13.0123 7.56918
1 11.5237 -8.92798 4.09599
1 -16.3877 18.9597 0.570842
1 6.44957 -9.2905 -15.8713
1 13.0304 -8.22515 -4.69362
1 -2.40721 14.5253 19.6027
1 -17.3357 -12.5463 0.611481
1 20.0267 -13.273 -7.7087
1 7.5113 14.8399 20.146
1 -19.9739 -5.53754 18.8519
1 -1.3759 -10.7617 -6.50289
1 -8.14378 13.8491 3.08999
1 -14.2188 16.5624 -3.54055
1 8.15759 11.6882 -17.6362
1 -4.99777 4.82675 -5.13929
1 -8.29459 -10.7656 1.60838
1 10.1321 -13.024 -13.3668
1 6.36616 -9.75708 -10.9249
1 0.589076 -5.38731 -19.8464
1 17.1176 0.179456 -15.4509
1 -19.9563 -17.3059 0.788592
1 -19.3265 16.8552 17.9114
1 -6.09878 16.037 6.01166
1 -7.54685 4.16783 8.2015
1 1.08806 17.1254 -10.3203
1 7.64618 9.99957 10.7597
1 0.384562 4.05209 -4.32356
1 8.93129 -5.6996 4.7626
1 0.347081 -15.1342 -5.34696
1 3.90264 13.1979 -9.06914
1 0.595535 10.4374 -15.8463
1 -4.61201 20.2031 -4.52298
1 7.3532 2.62816 10.7918
1 -10.9731 -15.5649 14.609
1 -17.8208 -8.46703 -18.1101
1 11.6898 16.1876 -7.17363
1 18.9214 -5.60037 -16.243
1 15.6891 -4.22695 18.0836
1 14.0278 16.4154 -2.71907
1 -17.5871 3.22023 -4.75135
1 -20.1027 -18.5751 -7.68245
1 -6.76057 -9.60126 19.4741
1 7.34796 -10.0817 19.212
1 -7.77391 -9.26757 -2.38296
1 -18.636 -9.13107 -3.01701
1 -18.0741 1.68836 5.61102
1 9.85781 14.7207 -1.08064
1 12.9518 -3.68707 -2.87886
1 -4.8602 -14.011 0.441246
1 9.45418 -9.7052 -2.39352
1 -12.0141 -13.401 -18.0581
1 15.2234 -8.00948 -14.9267
1 -16.4606 -0.922142 -17.5381
1 -0.777953 9.69499 -2.58833
1 11.9691 9.55893 -6.76949
1 -2.96436 6.54152 16.3662
1 -17.9687 -12.1314 -16.803
1 17.4742 4.03156 18.2284
1 -2.95816 0.692517 -3.46562
1 -19.7309 19.4591 -18.2801
1 -2.41602 2.06339 -10.0247
1 -3.08301 18.456 8.15825
1 3.84837 10.7074 12.873
1 3.20352 0.00785881 -4.01472
1 3.9391 4.48573 6.15897
1 2.87478 7.87103 3.57047
1 6.74438 11.6498 1.26382
1 -8.92281 -19.9044 2.56133
1 5.71472 17.3489 17.865
1 -10.0704 10.4511 5.7207
1 -4.34106 -3.8992 -11.814
1 18.1589 -14.1533 13.4992
1 4.19047 8.36996 8.42538
1 -16.9608 -16.8616 10.8137
1 9.15038 14.4294 -10.5737
1 -8.64412 -6.36532 -14.0423
1 -9.14542 7.83018 9.965
1 16.6481 -7.21302 9.32823
1 15.5275 19.3311 -7.32026
1 -7.67405 0.465257 4.02652
1 17.1579 15.6246 1.52592
1 11.8341 2.99411 8.08329
1 -8.87539 -14.9078 1.80297
1 12.9614 -18.7038 1.81064
1 18.3043 0.866364 -3.28733
1 14.462 1.77603 -5.06593
1 -15.4854 10.6341 5.09905
1 6.47236 -18.2411 12.1281
1 12.9807 -5.49142 7.19339
1 -3.44327 12.4584 3.64485
1 11.3263 -17.2617 -17.8301
1 13.3506 -13.18 8.32106
1 16.3178 -5.98649 -3.81785
1 17.259 -10.8072 7.49425
1 8.03287 -1.61539 18.7662
1 -13.1717 0.649467 -14.3182
1 17.5477 -8.18657 19.5969
1 -13.0559 19.6977 4.65176
1 -17.8637 7.34825 -6.35976
1 -15.6947 15.1814 -12.2784
1 -6.70162 16.4333 -4.76724
1 0.518709 -11.1241 2.52298
1 -0.88164 10.9749 15.5661
1 -10.2219 -15.358 18.8866
1 -12.8689 14.9688 5.42383
1 9.84667 17.3836 7.9751
1 3.71515 18.0805 -16.4603
1 12.9838 18.5595 14.7628
1 -9.71141 0.955666 15.918